CHO
 49180
  56.6018522  39.8746968  47.6364765  55.6578522  40.7526968  46.8304765
  54.3118522  40.7106968  46.9494765  53.6488522  39.9466968  48.0684765
  52.7148522  39.1376968  47.4404765  54.6128522  39.0896968  48.9034765
  55.7988522  38.6206968  48.0514765  55.0918522  39.7426968  50.0824765
  56.0408522  40.8026968  50.0104765  57.0998522  40.5456968  48.9244765
  57.9128522  39.5656968  46.8764765  58.4758522  40.4666968  46.2444765
  58.3798522  38.4276968  46.9054765  55.3858522  42.1956968  49.8654765
  54.2138522  42.3566968  50.1814765  56.0498522  43.1346968  49.4334765
  52.0808522  39.7466968  47.0914765  56.0668522  41.4176968  46.1554765
  53.7268522  41.2106968  46.2614765  53.2248522  40.6326968  48.7714765
  54.0408522  38.2466968  49.2304765  56.4198522  37.9616968  48.6214765
  56.5458522  40.8156968  50.9534765  57.7918522  39.8546968  49.3574765
  50.2958522  55.4696968  25.9514765  51.1868191  55.2066594  26.3478228
  50.1536099  56.4584993  26.1002618  50.2282887  55.0842550  25.0203646
  49.2588522  54.8176968  26.7094765  48.5783036  55.5478999  27.1473762
  48.4748522  53.9296968  25.7684765  48.8950239  54.0448794  24.7693329
  48.5994511  52.8981214  26.0977595  46.9898522  54.2776968  25.7384765
  46.8470638  55.3243405  25.4696842  46.4624233  53.6446473  25.0249156
  46.3258522  53.9946968  27.3814765  44.9298522  52.9816968  26.9744765
  45.2711728  52.0767525  26.4718085  44.3981171  52.7113965  27.8867791
  44.2604196  53.5330006  26.3141544  49.9828522  54.0016968  27.7764765
  51.2218522  53.9886968  27.7774765  49.3268522  53.4306968  28.7884765
  48.3568522  53.5356968  28.8964765  49.9828522  52.4056968  29.5974765
  51.0249246  52.3635858  29.2805995  49.9158522  52.6516968  31.1714765
  50.5247310  51.9053878  31.6817607  50.4528522  54.0666968  31.4984765
  49.8441491  54.8136194  30.9888809  50.4065753  54.2337210  32.5746094
  51.4863936  54.1502656  31.1624591  48.5178522  52.5386968  31.6974765
  47.9749506  53.4304556  31.3842278  48.0643189  51.6588241  31.2411530
  48.4538522  52.4106968  33.2424765  48.9068138  53.2904819  33.6995364
  47.4135378  52.3327096  33.5583295  48.9961845  51.5188510  33.5564618
  49.1098522  51.2006968  29.1884765  47.9208522  51.3836968  28.8634765
  49.6438522  49.9836968  29.0804765  50.5798522  49.8156968  29.2964765
  48.8238522  48.8076968  28.7624765  47.7855763  49.0046995  29.0294448
  48.8908522  48.4776968  27.2684765  49.8796604  48.0523463  27.0969111
  48.1323195  47.7148260  27.0931019  48.6688522  49.6376968  26.3194765
  47.8677690  50.2494101  26.7344141  49.5913564  50.2176581  26.2924019
  48.3048522  49.2146968  24.9304765  48.7714270  49.8632306  24.1889842
  48.6008841  48.1818798  24.7467547  46.8708522  49.3156968  24.7964765
  46.3178522  48.5486968  25.0524765  46.2668522  50.4056968  24.3394765
  46.8918522  51.5136968  23.9604765  47.8878522  51.5736968  24.0184765
  46.3638522  52.2986968  23.6374765  44.9598522  50.3776968  24.2544765
  44.4388522  49.5666968  24.5194765  44.5078522  51.1726968  23.8654765
  49.3378522  47.5926968  29.5584765  50.4788522  47.5866968  30.0604765
  48.5358522  46.5386968  29.7244765  47.6278522  46.5636968  29.3544765
  48.9838522  45.3436968  30.4474765  49.7900769  45.6512089  31.1134624
  48.1404032  44.9877507  31.0390806  49.4808522  44.2076968  29.5574765
  48.9918522  43.9706968  28.4414765  50.4488522  43.4186968  29.9884765
  50.8518522  43.5906968  30.8584765  50.9328522  42.2806968  29.2224765
  50.3404667  42.2659889  28.3076201  52.4468522  42.4736968  28.8614765
  53.0545053  42.3268123  29.7543836  52.8508522  41.4606968  27.8014765
  52.2439067  41.6072688  26.9080369  53.9031464  41.5957734  27.5514122
  52.6954632  40.4519932  28.1841911  52.6818522  43.8586968  28.2194765
  52.1756263  43.8334257  27.2544907  52.1873207  44.5802109  28.8698267
  54.1568522  44.2746968  28.0164765  54.6519507  43.5538572  27.3658094
  54.1964317  45.2633207  27.5591413  54.6636459  44.3006401  28.9811459
  50.7138522  41.0096968  30.0594765  51.2738522  40.8196968  31.1344765
  49.6968522  40.2566968  29.6424765  49.0498522  40.6836968  29.0624765
  49.3638522  38.9426968  30.1554765  49.2943224  38.9922176  31.2421284
  48.0348522  38.4336968  29.6044765  48.0052507  38.7292621  28.5557324
  48.0711376  37.3465309  29.6741456  46.7778522  38.9496968  30.3164765
  46.6668742  40.0108827  30.0936106  45.9156520  38.4058204  29.9305862
  46.8678522  38.7536968  31.8314765  47.5795048  39.4902168  32.2045555
  45.8793220  38.9654997  32.2389651  47.2868522  37.4256968  32.2834765
  48.0778522  37.3456968  32.8494765  46.6438522  36.2826968  31.9674765
  45.5428522  36.2346968  31.2054765  45.1418522  37.0756968  30.8424765
  45.1098522  35.3556968  31.0124765  47.1698522  35.1386968  32.4064765
  48.0118522  35.1516968  32.9454765  46.7308522  34.2676968  32.1964765
  50.3618522  37.8556968  29.8624765  50.9038522  37.7646968  28.7644765
  50.5588522  37.0146968  30.8604765  50.0758522  37.1466968  31.7064765
  51.4048522  35.8536968  30.7314765  51.4326874  35.5250476  29.6925760
  52.4156359  36.0888310  31.0648344  50.8478522  34.7266968  31.5934765
  50.1128522  35.0036968  32.5444765  51.1668522  33.4726968  31.2944765
  51.7198522  33.3046968  30.4964765  50.7688522  32.3116968  32.0744765
  50.7584215  32.5203306  33.1442719  49.4118522  31.8046968  31.6704765
  49.4092650  31.5826931  30.6033271  49.1805962  30.8984010  32.2301628
  48.6607669  32.5650086  31.8847098  51.7758522  31.1976968  31.8014765
  52.2988522  31.1136968  30.6874765  52.1208522  30.3826968  32.7954765
  51.7148522  30.5446968  33.6754765  53.0008522  29.2286968  32.6624765
  52.9764540  28.7759889  31.6712351  54.4288522  29.7506968  32.9314765
  54.5148016  30.7181265  32.4367111  54.7688522  29.9036968  34.4054765
  54.6835685  28.9365196  34.9008497  55.7887374  30.2746693  34.5070279
  54.0783434  30.6097433  34.8667751  55.3018522  28.8186968  32.3134765
  55.4678522  28.0696968  32.8974765  52.4838522  28.1866968  33.6834765
  51.5748522  28.4916968  34.4664765  52.9678522  26.9486968  33.7294765
  53.6418522  26.6516968  33.0874765  52.5258522  25.9506968  34.6764765
  51.8890953  26.4059462  35.4350197  51.7388522  24.8426968  33.9794765
  51.4329817  24.1198281  34.7357862  50.5188522  25.3666968  33.2624765
  50.8239845  26.0893280  32.5056423  49.9947904  24.5394312  32.7838429
  49.8552796  25.8503754  33.9792937  52.6188522  24.2146968  33.0424765
  53.3428522  23.8026968  33.5374765  53.7528522  25.3316968  35.3264765
  54.6988522  25.0276968  34.5884765  53.8558522  25.1676968  36.6394765
  53.0988522  25.4226968  37.2104765  54.9638522  24.4126968  37.1964765
  55.8545587  24.5207679  36.5775566  55.3218522  24.8126968  38.6574765
  56.0645476  24.1306245  39.0713366  55.8928522  26.2096968  38.6104765
  55.1505141  26.8924694  38.1971285  56.1576237  26.5286535  39.6185753
  56.7832074  26.2178873  37.9817458  54.1338522  24.7236968  39.5964765
  53.7590971  23.7002792  39.6131243  54.4415896  25.0137734  40.6010923
  53.3459902  25.3929927  39.2509087  54.4998522  22.9486968  37.1874765
  53.3068522  22.6426968  37.0584765  55.4018522  21.9856968  37.3134765
  56.3258522  22.2266968  37.4594765  55.0218522  20.5906968  37.2894765
  53.9942868  20.4590339  36.9505467  55.9598522  19.8966968  36.2924765
  56.9298625  20.3915277  36.3406591  56.0678031  18.8560953  36.5984100
  55.4128522  19.9556968  34.8144765  55.5422586  18.9489243  34.4172814
  54.3518665  20.1503566  34.9710523  55.9818522  20.9826968  33.8094765
  57.1068522  20.7826968  33.3154765  55.2928522  21.9646968  33.4794765
  55.0328522  19.9676968  38.6764765  54.5168522  18.8756968  38.9104765
  55.5118522  20.7376968  39.6424765  55.7858522  21.6586968  39.4484765
  55.5718522  20.3456968  41.0284765  54.7027345  19.7591685  41.3263325
  56.7998522  19.4856968  41.1584765  56.6805974  18.7500857  40.3630182
  57.6139855  20.1648786  40.9054961  57.1188522  18.7786968  42.4534765
  57.3278931  19.4893962  43.2530445  56.3053881  18.1198122  42.7572021
  58.3668522  17.9486968  42.1724765  58.5782829  17.3277392  43.0429980
  58.1893756  17.3110478  41.3064480  59.5318522  18.7906968  41.9034765
  59.9158522  19.2976968  42.6494765  60.1198522  18.9116968  40.6964765
  59.6818522  18.2516968  39.6144765  58.8918522  17.6426968  39.6834765
  60.1448522  18.3706968  38.7364765  61.1508522  19.7536968  40.5644765
  61.4708522  20.2786968  41.3534765  61.5988522  19.8596968  39.6764765
  55.6358522  21.6566968  41.8324765  56.1208522  22.6956968  41.3664765
  55.0838522  21.6426968  43.0364765  54.7578522  20.7986968  43.4074765
  54.9958522  22.8186968  43.8854765  55.0351127  23.7332865  43.2937979
  53.6278522  22.7676968  44.6344765  52.8978362  22.9994827  43.8589436
  53.5001748  21.7339364  44.9556275  53.4178522  23.7006968  45.8264765
  53.9728522  24.7876968  45.8684765  52.7048522  23.3216968  46.7454765
  56.1778522  22.8586968  44.8384765  56.1668522  22.3706968  45.9664765
  57.2398522  23.4436968  44.3584765  57.2358522  23.8226968  43.4524765
  58.4128522  23.5956968  45.1644765  58.2349706  23.6957609  46.2351979
  59.2208522  22.2626968  44.9094765  58.6178008  21.4579766  45.3300173
  59.5438522  21.9486968  43.4674765  60.1473192  22.7528049  43.0463620
  60.0993072  21.0123352  43.4145995  58.6183078  21.8540764  42.8995724
  60.4068522  22.4006968  45.6754765  60.7758522  21.5236968  45.8274765
  59.0298522  24.9416968  44.7474765  58.7718522  25.4446968  43.6544765
  59.7788522  25.6066968  45.6244765  60.0118522  25.1486968  46.4604765
  60.2948522  26.9376968  45.3694765  59.4822267  27.6425108  45.1934761
  61.0798522  27.3936968  46.6044765  60.3809776  27.4209208  47.4404982
  61.8461808  26.6427217  46.7965104  61.7418522  28.7716968  46.4454765
  62.5266565  28.6572662  45.6977541  60.9611721  29.4245492  46.0550645
  62.3298522  29.3836968  47.7074765  63.0278522  28.6916968  48.4494765
  62.0978522  30.5716968  47.9404765  61.1468522  27.0696968  44.1094765
  60.7578522  27.7956968  43.1914765  62.2778522  26.3566968  44.0174765
  62.5488522  25.8456968  44.8104765  63.1768522  26.3786968  42.8634765
  63.7021521  27.3315348  42.7982157  64.2038522  25.2676968  43.0364765
  64.5236023  25.3164504  44.0773810  63.6661574  24.3351102  42.8654015
  65.4288522  25.3236968  42.1244765  65.0487796  25.3683203  41.1038618
  65.9595921  26.2474991  42.3547017  66.3878522  24.1366968  42.2604765
  67.2228522  24.1446968  43.1714765  66.2998522  23.2116968  41.4434765
  62.4258522  26.2096968  41.5564765  62.7068522  26.8966968  40.5834765
  61.4278522  25.3416968  41.5424765  61.2058522  24.8846968  42.3754765
  60.5998522  25.1156968  40.3864765  61.1984960  24.9548467  39.4898985
  59.7968522  23.8676968  40.6604765  60.5569745  23.0888260  40.7210882
  59.3829576  24.0487060  41.6524578  58.6928522  23.4226968  39.7274765
  58.1012153  22.7150781  40.3082882  58.1046812  24.3215649  39.5425708
  59.0788522  22.7926968  38.4074765  60.2378522  22.4106968  38.2374765
  58.2108522  22.6816968  37.5424765  59.7048522  26.3046968  40.0544765
  59.7778522  26.8256968  38.9324765  58.8938522  26.7806968  41.0134765
  58.9328522  26.3546968  41.8954765  57.9848522  27.9176968  40.8304765
  57.2661035  27.7382281  40.0309201  57.2148522  28.1536968  42.1854765
  57.9037957  27.9484319  43.0048199  56.6798522  29.5906968  42.3134765
  55.9904339  29.7965574  41.4946820  56.1577338  29.7012531  43.2638819
  57.5118584  30.2936901  42.2726675  56.0708522  27.1506968  42.2544765
  55.4624930  27.3037248  41.3630831  56.5190884  26.1576650  42.2217380
  55.1808522  27.2726968  43.5124765  54.7318714  28.2653774  43.5456610
  54.3937618  26.5195432  43.4757676  55.7884678  27.1193198  44.4043165
  58.7488522  29.1636968  40.3764765  58.4038522  29.8036968  39.3734765
  59.8238522  29.5036968  41.0744765  60.0958522  28.9376968  41.8244765
  60.6048522  30.6666968  40.7344765  59.9587508  31.5398896  40.6439979
  61.6388522  30.9346968  41.8314765  62.2570285  30.0374579  41.8618022
  62.2264409  31.7672125  41.4444918  61.1458522  31.2716968  43.2644765
  60.7349293  30.3797414  43.7374022  62.3258522  31.7716968  44.0704765
  62.7370513  32.6639683  43.5983900  61.9992282  32.0140527  45.0817534
  63.0920542  30.9975671  44.1124084  60.0778522  32.3546968  43.2694765
  59.2186181  32.0210633  42.6876648  59.7664414  32.5538785  44.2948794
  60.4820595  33.2663504  42.8294728  61.2928522  30.4966968  39.3874765
  61.3168522  31.4516968  38.6144765  61.8058522  29.3196968  39.0144765
  61.7238522  28.5406968  39.6074765  62.5048522  29.1666968  37.7564765
  63.3015545  29.9066577  37.6801711  63.1128522  27.7956968  37.6674765
  63.7087229  27.6096971  38.5610320  62.3163594  27.0544949  37.6017567
  63.9928522  27.6966968  36.4474765  63.7026355  28.4574714  35.7228407
  65.0197472  27.8733719  36.7674368  63.9208522  26.3396968  35.7794765
  63.0438522  26.0646968  34.9634765  64.8488522  25.4496968  36.0744765
  64.7898522  24.5786968  35.6364765  65.5348522  25.6966968  36.7344765
  61.5288522  29.3576968  36.6144765  61.7958522  30.1206968  35.6914765
  60.3668522  28.7206968  36.6774765  60.1998522  28.0976968  37.4184765
  59.3608522  28.8876968  35.6404765  59.8218927  28.7523360  34.6621011
  58.2438522  27.8756968  35.7934765  57.8195224  28.0273321  36.7859734
  57.4966186  28.1195143  35.0382977  58.6608522  26.4356968  35.6404765
  59.5029562  26.2696661  36.3123362  57.8185016  25.8197941  35.9554548
  59.0608522  26.0596968  34.2264765  58.2800810  26.3549357  33.5255276
  59.9949804  26.5530579  33.9579642  59.2508522  24.5416968  34.1684765
  59.8490832  24.3098131  33.2873124  59.7905342  24.2348796  35.0644150
  57.9818522  23.8256968  34.0964765  57.4648522  24.1196968  33.2444765
  58.1618522  22.8016968  34.0564765  57.4148522  24.0446968  34.9394765
  58.7468522  30.2786968  35.6554765  58.3948522  30.7556968  34.5684765
  58.5638522  30.9656968  36.7974765  58.7728522  30.5496968  37.6554765
  58.0838522  32.3396968  36.7564765  57.2087876  32.4439924  36.1150067
  57.7208522  32.8176968  38.1564765  58.5729540  32.6223872  38.8075348
  57.3768522  34.3036968  38.2014765  56.5244890  34.4997131  37.5509735
  57.1263943  34.5884061  39.2233916  58.2336037  34.8859371  37.8622513
  56.6248522  32.0076968  38.5664765  56.9678522  31.1296968  38.7784765
  59.1718522  33.2336968  36.1534765  58.8788522  33.9406968  35.1934765
  60.4338522  33.1916968  36.5924765  60.6458522  32.6056968  37.3414765
  61.5158522  33.9876968  36.0174765  61.3185311  35.0503435  36.1587047
  62.8118522  33.6446968  36.6994765  62.6309829  33.6964005  37.7731208
  63.0570953  32.6195819  36.4218161  63.9748522  34.5616968  36.3354765
  63.9541592  34.7585321  35.2635957  63.8741472  35.5011963  36.8788927
  65.2998522  33.8996968  36.7054765  66.0665361  34.6744833  36.7062885
  65.1951400  33.4918390  37.7108554  65.7088522  32.7726968  35.7334765
  65.7935043  33.2410918  34.7528947  66.6925301  32.4361980  36.0609602
  64.8068522  31.6286968  35.6494765  64.6748522  31.2176968  36.5954765
  63.8878522  31.9356968  35.2714765  65.2148522  30.9116968  35.0164765
  61.6658522  33.7626968  34.5204765  61.7718522  34.7436968  33.7734765
  61.6108522  32.5146968  34.0284765  61.6018522  31.7616968  34.6564765
  61.6268522  32.2566968  32.5954765  62.5430758  32.6662709  32.1701734
  61.5708522  30.8066968  32.2924765  60.8083362  30.3746388  32.9405463
  61.2601277  30.7099985  31.2521882  62.8728522  30.0796968  32.4964765
  63.5705319  30.4315581  31.7365175  63.2682571  30.3089797  33.4860149
  62.7318522  28.5576968  32.3654765  61.7678522  27.9586968  31.8384765
  63.7538522  27.9126968  32.9054765  63.6388522  26.9446968  33.0324765
  64.5248522  28.4196968  33.2274765  60.4408522  32.8826968  31.8834765
  60.5958522  33.3276968  30.7504765  59.2388522  32.9316968  32.4554765
  59.0958522  32.5196968  33.3334765  58.1238522  33.5836968  31.7954765
  57.9693692  33.1520297  30.8065894  56.8558522  33.3926968  32.6124765
  56.6857853  32.3182041  32.5443439  57.1548489  33.6489757  33.6288534
  55.5658522  34.1366968  32.2574765  55.7704330  35.1955838  32.4156088
  55.0438522  33.9236968  30.8254765  54.8385943  32.8650331  30.6667340
  54.1272953  34.4962647  30.6833847  55.7954312  34.2587183  30.1106408
  54.5748522  33.6266968  33.2474765  54.9176073  33.8558244  34.2564953
  53.6099269  34.1034482  33.0750573  54.4713885  32.5473831  33.1357797
  58.4468522  35.0766968  31.6744765  58.3948522  35.6686968  30.5904765
  58.8628522  35.6936968  32.7724765  58.9578522  35.1726968  33.5994765
  59.1928522  37.0956968  32.7624765  58.3556613  37.6991534  32.4116907
  59.5088522  37.4896968  34.1844765  60.1530920  36.7099636  34.5907652
  60.0289156  38.4468390  34.2233711  58.2318522  37.5726968  35.0084765
  57.7065905  36.6192589  34.9522886  58.5638522  37.8806968  36.4514765
  59.0887552  38.8342805  36.5085190  57.6433335  37.9379286  37.0323986
  59.1990859  37.0921759  36.8549779  57.3208522  38.6316968  34.4014765
  57.0791206  38.3583385  33.3743735  56.4024745  38.6992522  34.9846745
  57.8280837  39.5964435  34.4103676  60.3098522  37.4556968  31.8024765
  60.0428522  38.3316968  30.9844765  61.5018522  36.8416968  31.8064765
  61.6948522  36.2266968  32.5444765  62.5108522  37.0526968  30.7634765
  62.9872152  38.0196842  30.9250710  63.5688522  35.9906968  30.7684765
  63.0606508  35.0317612  30.8698334  64.0720519  36.0343275  29.8025642
  64.5818522  36.1386968  31.8674765  65.2040760  36.9907175  31.5936169
  64.0255725  36.3725546  32.7752003  65.4668522  34.9216968  32.1134765
  65.4448522  33.9686968  31.3344765  66.1868522  34.9336968  33.1124765
  61.9558522  37.0426968  29.3524765  62.3718522  37.8536968  28.5264765
  60.9938522  36.1606968  29.0634765  60.6458522  35.5716968  29.7674765
  60.3788522  36.0866968  27.7434765  61.1637507  36.0821935  26.9871609
  59.5298522  34.8306968  27.5724765  60.0862888  34.0432089  28.0807485
  58.6097838  35.0359582  28.1196893  59.1908522  34.3816968  26.1654765
  58.4309794  33.6007378  26.1937133  58.8229192  35.2249477  25.5809637
  60.4668522  33.8296968  25.5184765  61.2327644  34.6050335  25.5366581
  60.8078549  32.9692785  26.0942342  60.2098522  33.4096968  24.0904765
  59.7708348  34.2423362  23.5408621  61.1476303  33.1173405  23.6180367
  59.2928522  32.2866968  24.0794765  59.7088522  31.4976968  24.6144765
  58.3898522  32.5606968  24.5174765  59.1238522  31.9876968  23.0974765
  59.4578522  37.2656968  27.5474765  59.3558522  37.7506968  26.4244765
  58.7568522  37.7786968  28.5664765  58.8388522  37.3796968  29.4604765
  57.8288522  38.8806968  28.3324765  57.2555313  38.5396596  27.4704463
  56.8688522  39.0766968  29.5524765  57.4483318  39.2602053  30.4572573
  55.9718522  40.2756968  29.2724765  55.3916774  40.0927217  28.3680330
  55.2949476  40.4278901  30.1131536  56.5861907  41.1656151  29.1356088
  55.8668522  37.9386968  29.7064765  55.1756089  37.9803441  28.8647229
  56.4165055  36.9978510  29.6783680  55.0588522  38.0336968  31.0534765
  54.5085353  38.9741389  31.0821079  54.3581187  37.2012026  31.1169203
  55.7494327  37.9916481  31.8957534  58.6368522  40.1456968  28.0654765
  58.3648522  40.9416968  27.1504765  59.6708522  40.2866968  28.8694765
  59.8148522  39.6036968  29.5564765  60.6038522  41.3876968  28.7334765
  60.1324414  42.3678592  28.8052576  61.6518522  41.2546968  29.8084765
  62.1068339  40.2669878  29.7341590  62.7448522  42.3386968  29.6524765
  62.2906694  43.3267466  29.7271507  63.4890619  42.2210105  30.4401329
  63.2259031  42.2330640  28.6800923  60.9338522  41.3146968  31.1324765
  60.5975712  42.3393973  31.2906049  60.0692158  40.6530308  31.0805013
  61.8318522  40.8886968  32.2934765  62.6965304  41.5502351  32.3463784
  61.2722123  40.9477320  33.2269737  62.1681769  39.8638686  32.1362734
  61.2348522  41.3126968  27.3554765  61.3168522  42.3236968  26.6744765
  61.6198522  40.1226968  26.8954765  61.5328522  39.3516968  27.4934765
  62.2328522  39.9046968  25.5994765  63.1147830  40.5336044  25.4779345
  62.6528522  38.4666968  25.5074765  63.3194918  38.3145100  26.3563170
  61.7362525  37.8966864  25.6592433  63.3308522  37.9996968  24.2474765
  62.8805172  38.4821967  23.3800129  64.3870700  38.2634370  24.3017385
  63.1918522  36.4946968  24.1174765  63.9408522  35.7516968  24.7564765
  62.3048522  36.0856968  23.3734765  61.2638522  40.2316968  24.5014765
  61.5478522  41.1476968  23.7324765  60.1228522  39.5496968  24.4084765
  59.9648522  38.8426968  25.0614765  59.1228522  39.7726968  23.3664765
  59.5529168  39.5309138  22.3945276  57.8918522  38.9016968  23.5844765
  57.4922814  39.2232336  24.5462750  57.2036831  39.1916590  22.7904707
  58.0558522  37.4026968  23.5844765  58.7944472  37.1541327  24.3465751
  57.0859996  36.9977285  23.8734155  58.4788522  36.8026968  22.2554765
  59.6828522  36.7196968  21.9754765  57.5868522  36.3996968  21.5104765
  58.6228522  41.2056968  23.2564765  58.2858522  41.6376968  22.1544765
  58.5898522  42.0076968  24.3314765  58.8488522  41.6396968  25.2034765
  58.0908522  43.3886968  24.2484765  57.6917686  43.6007337  23.2565734
  56.9758522  43.5476968  25.2634765  57.3507663  43.4099648  26.2776602
  56.5620515  44.5510549  25.1627714  55.8738522  42.5436968  25.0154765
  54.9718522  42.7586968  24.2184765  55.9118522  41.3836968  25.6634765
  55.1928522  40.7366968  25.5124765  56.6588522  41.2286968  26.2704765
  59.1828522  44.4346968  24.4734765  59.0178522  45.6476968  24.3504765
  60.4028522  43.9796968  24.7194765  60.5058522  43.0226968  24.9054765
  61.6078522  44.7796968  24.8264765  62.4622644  44.1421667  25.0537085
  61.8758522  45.5066968  23.4884765  61.3418201  46.4567897  23.4732339
  62.9480306  45.6920743  23.4239103  61.4818522  44.7616968  22.2084765
  60.4658522  45.0606968  21.3904765  59.8258522  45.8086968  21.4744765
  60.4328522  44.1756968  20.4164765  59.7231615  44.2711907  19.5946986
  61.4198522  43.3216968  20.6134765  61.5658522  42.5256968  20.0654765
  62.0958522  43.6366968  21.6974765  62.9976907  43.0825277  21.9576401
  61.4858522  45.7836968  25.9714765  61.9408522  46.9266968  25.8634765
  60.8718522  45.3166968  27.0694765  60.6608522  44.3596968  27.0714765
  60.5138522  46.0436968  28.2824765  59.9998654  46.9670452  28.0153727
  59.5128522  45.1206968  29.0674765  60.0972718  44.2873253  29.4574072
  58.7748522  45.7956968  30.2054765  58.1898029  46.6289446  29.8162272
  58.1092963  45.0774493  30.6842822  59.4937431  46.1670237  30.9358277
  58.5218522  44.7276968  28.1224765  57.7648522  44.3516968  28.5894765
  61.6518522  46.5186968  29.1994765  62.4918522  45.7266968  29.6134765
  61.6408522  47.7926968  29.5994765  60.8768522  48.3416968  29.3344765
  62.6298522  48.4226968  30.4524765  63.5575042  47.8509260  30.4271938
  62.9198522  49.8456968  29.9744765  61.9339440  50.2966643  29.8617270
  63.4374034  50.3100999  30.8138635  63.7228522  50.0606968  28.7034765
  63.3309901  49.4233717  27.9107838  63.6520695  51.1046304  28.3980351
  65.1878522  49.7046968  28.9664765  65.6383800  50.4663149  29.6029208
  65.2429245  48.7366935  29.4645087  65.9488522  49.6376968  27.6294765
  65.8593727  50.6127373  27.1505298  66.9968883  49.4379025  27.8526395
  65.4368522  48.6046968  26.7304765  65.5148522  47.6766968  27.1934765
  64.4408522  48.8016968  26.5084765  65.9948522  48.6026968  25.8534765
  62.0368522  48.5076968  31.8444765  60.9118522  48.9966968  31.8834765
  62.6238522  48.1576968  32.9974765  63.9498522  47.5676968  33.1274765
  64.6209388  48.0182086  32.3961884  63.8883933  46.4939396  32.9503679
  64.3428522  47.8996968  34.5684765  64.7722426  48.8992783  34.6360022
  65.0554689  47.1717470  34.9562496  63.0358522  47.8136968  35.3024765
  63.0231832  48.5272578  36.1263510  62.8710186  46.8085297  35.6905084
  61.9548522  48.1646968  34.3004765  61.2092633  47.3696083  34.3059381
  61.2788522  49.4926968  34.5834765  60.0988522  49.4996968  34.8664765
  61.9228522  50.6446968  34.3334765  62.8348522  50.5806968  34.0004765
  61.3388522  51.9776968  34.5394765  61.0305896  52.0836864  35.5795916
  62.3578522  53.0836968  34.2134765  61.8853457  54.0069384  34.5488295
  63.2185703  52.8661462  34.8458816  62.8248522  53.2466968  32.7434765
  61.9314789  53.0403340  32.1540705  63.0846554  54.3012711  32.6514201
  63.9888522  52.3856968  32.2274765  64.4128522  51.4316968  32.8874765
  64.4898522  52.6786968  31.1394765  60.0888522  52.2696968  33.7334765
  59.5138522  53.3476968  33.8654765  59.7118522  51.3566968  32.8424765
  60.1678522  50.4976968  32.8104765  58.5468522  51.4916968  32.0004765
  58.2795834  52.5451467  31.9173509  58.8098522  50.9436968  30.6014765
  59.3667243  50.0249051  30.7853637  57.8290403  50.6981575  30.1942682
  59.5828522  51.8206968  29.5894765  59.8558522  53.0036968  29.8554765
  59.8838522  51.2846968  28.5074765  57.3778522  50.7466968  32.5774765
  56.2648522  50.8926968  32.0684765  57.6168522  49.9876968  33.6484765
  58.4378522  50.1056968  34.1664765  56.6308522  49.1116968  34.2374765
  55.8329597  48.9157945  33.5211741  57.2928522  47.7386968  34.6424765
  57.8541069  47.8604645  35.5689024  56.2028522  46.7036968  34.8444765
  55.6414205  46.5810354  33.9182748  56.6528587  45.7513261  35.1248062
  55.5297720  47.0338121  35.6357340  58.2458522  47.2296968  33.5744765
  59.0415685  47.9583750  33.4196680  58.6789205  46.2821468  33.8949458
  57.7018099  47.0828484  32.6414414  56.0358522  49.8106968  35.4554765
  56.6938522  50.0706968  36.4554765  54.7468522  50.0976968  35.3484765
  54.3288522  49.8936968  34.4914765  53.9468522  50.7086968  36.3944765
  54.3416920  51.6490236  36.7791662  52.5388522  50.9656968  35.8124765
  52.1497892  50.0261333  35.4201122  51.5798522  51.5096968  36.8824765
  51.9680398  52.4495531  37.2750087  50.5986012  51.6793284  36.4392249
  51.4915838  50.7866993  37.6933926  52.6898522  51.9096968  34.6234765
  53.3307146  51.4486353  33.8719315  51.7095440  52.1098121  34.1909846
  53.1373363  52.8460367  34.9568328  53.8758522  49.8066968  37.6354765
  54.0448522  50.2386968  38.7824765  53.5318522  48.5336968  37.4224765
  53.4398522  48.2126968  36.5014765  53.3348522  47.5666968  38.4784765
  54.2109684  47.5453153  39.1265987  52.1178522  47.9306968  39.3174765
  52.0705915  47.1914472  40.1170862  52.3271924  48.9122455  39.7427280
  50.7898522  47.9696968  38.5864765  50.9183817  48.5632562  37.6813421
  50.4883993  46.9575127  38.3168257  49.6928522  48.5946968  39.4234765
  48.5418522  48.1786968  39.3514765  49.9828522  49.6136968  40.2244765
  49.2638522  49.9426968  40.8114765  50.8898522  49.9746968  40.2264765
  53.1018522  46.2196968  37.8444765  52.8508522  46.1726968  36.6384765
  53.1158522  45.1436968  38.6204765  53.2328522  45.2336968  39.5934765
  52.9218522  43.8146968  38.0974765  52.3524253  43.8416847  37.1684319
  54.2698522  43.2186968  37.8164765  54.8211831  43.9130319  37.1824163
  54.7923321  43.1012242  38.7658526  54.1698522  41.8646968  37.1204765
  53.4885710  41.2485301  37.7072434  53.7423103  42.0389584  36.1330845
  55.7508522  40.9986968  36.9404765  56.9548522  42.1386968  37.5374765
  56.7420594  42.3805852  38.5787777  57.9465230  41.6922692  37.4640447
  56.9217283  43.0493511  36.9393855  52.1898522  42.9956968  39.1554765
  52.4318522  43.1346968  40.3594765  51.2788522  42.1416968  38.7174765
  51.1628522  42.0476968  37.7494765  50.5028522  41.2716968  39.5714765
  50.7525656  41.4907911  40.6096191  48.9858522  41.4456968  39.3834765
  48.9336664  41.4223120  38.2949779  48.4772114  40.5715355  39.7899572
  48.3128522  42.7046968  39.8944765  48.9116398  43.5767812  39.6317540
  46.9348522  42.8216968  39.2504765  46.3352856  41.9501326  39.5131448
  46.4404624  43.7240061  39.6103617  47.0428333  42.8746656  38.1671322
  48.3158522  42.6876968  41.4134765  49.3434555  42.6487784  41.7748853
  47.8333268  43.5903038  41.7884046  47.7729306  41.8117924  41.7686195
  50.8788522  39.8826968  39.1114765  51.0738522  39.6526968  37.9124765
  50.9218522  38.9506968  40.0434765  50.6758522  39.1826968  40.9634765
  51.2898522  37.5776968  39.7544765  51.2803131  37.3801214  38.6825753
  52.7418522  37.3676968  40.2874765  52.7859444  37.7730016  41.2983588
  52.7975637  36.2799507  40.3299588  53.9308522  37.9126968  39.4614765
  53.6279322  38.8630222  39.0219064  55.1458522  38.1146968  40.2844765
  55.4496673  37.1646531  40.7240356  55.9506115  38.4980958  39.6572058
  54.9325730  38.8301889  41.0786322  54.3578522  36.9226968  38.4354765
  53.5267648  36.7160773  37.7611608  55.1950735  37.3266780  37.8663007
  54.6648837  35.9992592  38.9264895  50.2538522  36.6916968  40.4544765
  50.1928522  36.7996968  41.6824765  49.3838522  35.8806968  39.8214765
  49.3918522  35.8246968  38.8424765  48.4478522  35.0106968  40.5414765
  48.4205451  35.2975829  41.5926900  47.0558522  35.1226968  39.9754765
  46.3895622  34.5177228  40.5904263  46.7504161  36.1676355  40.0294385
  46.9888522  34.6796968  38.6294765  47.0558522  33.7106968  38.5874765
  48.8168522  33.5216968  40.4874765  49.1458522  33.0256968  39.3964765
  48.7408522  32.7266968  41.5554765  48.3828522  33.0776968  42.3974765
  49.0458522  31.2906968  41.4444765  49.4199879  31.0252202  40.4557177
  50.0648522  30.8596968  42.4794765  49.7002454  31.1106553  43.4755597
  50.2203618  29.7830457  42.4106318  51.0081142  31.3748643  42.2979318
  47.7738522  30.5216968  41.7004765  46.8848522  31.0616968  42.3644765
  47.5898522  29.3016968  41.2094765  48.3348522  28.8776968  40.7454765
  46.3698522  28.5346968  41.5224765  45.4877495  29.1646856  41.4079865
  46.2388522  27.3316968  40.5794765  45.6841662  26.5473903  41.0945367
  45.5168522  27.7046968  39.3034765  46.0712262  28.4886829  38.7875938
  45.4417049  26.8290988  38.6586663  44.5166739  28.0654451  39.5434859
  47.5528522  26.8686968  40.2694765  47.9608522  27.5816968  39.7604765
  46.3908522  28.0446968  42.9704765  47.4948522  27.8806968  43.4814765
  45.2958522  27.7836968  43.7234765  43.8998522  27.8366968  43.2284765
  43.8533854  27.3565109  42.2510499  43.5977197  28.8798049  43.1349866
  43.0908522  27.0876968  44.2904765  43.0978068  26.0091707  44.1328940
  42.0607449  27.4390381  44.3499699  43.8648522  27.4696968  45.5344765
  43.6908857  26.8554088  46.4179271  43.5503936  28.4935478  45.7368239
  45.3538522  27.4426968  45.1654765  45.7937696  28.3251374  45.6300940
  46.1268522  26.1716968  45.6304765  46.3848522  25.9136968  46.8234765
  46.5188522  25.3746968  44.6334765  46.2288522  25.6236968  43.7364765
  47.3698522  24.2126968  44.7584765  47.1852649  23.6968570  45.7007800
  47.0528522  23.2526968  43.6034765  47.8444041  22.5035741  43.6224542
  46.0985980  22.7780935  43.8320603  46.9858522  23.8886968  42.2124765
  47.9068522  24.5966968  41.8184765  45.9888522  23.6846968  41.5314765
  48.8588522  24.5766968  44.7684765  49.6988522  23.6716968  44.8394765
  49.2818522  25.8516968  44.6944765  48.6488522  26.5906968  44.5494765
  50.7028522  26.1976968  44.8364765  51.2757925  25.2750797  44.9293012
  51.2488522  26.9956968  43.6474765  50.7060199  27.9409102  43.6494148
  52.3033252  27.1824699  43.8507069  51.1078522  26.3446968  42.3134765
  50.0553715  26.1573282  42.1006899  51.6738522  27.2656968  41.2684765
  52.7264976  27.4531745  41.4803457  51.5782228  26.8036043  40.2859154
  51.1277459  28.2089483  41.2805107  51.8498522  25.0236968  42.3074765
  51.4341467  24.3693937  43.0737505  51.7441581  24.5514426  41.3307954
  52.9058109  25.1985659  42.5135616  50.8908522  27.0566968  46.0784765
  50.2958522  28.1196968  46.2724765  51.7308522  26.4786968  46.9234765
  52.1408522  25.6466968  46.6234765  52.0238522  26.9346968  48.2704765
  51.5405972  27.8958858  48.4456319  51.5088522  25.9316968  49.3074765
  51.9590588  24.9631064  49.0901152  51.7296346  26.2114463  50.3375713
  50.0128522  25.7416968  49.2224765  49.0708522  26.5476968  49.6824765
  49.2128522  27.3856968  50.1624765  47.9118522  26.0736968  49.3444765
  46.9942273  26.6369951  49.5140600  48.1298522  24.9656968  48.6804765
  47.3948522  24.3656968  48.4214765  49.4008522  24.7086968  48.5764765
  49.7415556  23.8930372  47.9387289  53.4808522  27.1536968  48.5954765
  53.7778522  27.6626968  49.6674765  54.4208522  26.8356968  47.7194765
  54.2118522  26.7516968  46.7714765  55.8038522  26.8226968  48.1734765
  55.7888525  26.3573256  49.1590240  56.7508522  26.0226968  47.2674765
  56.7834925  26.4819058  46.2794675  57.7515979  26.0197745  47.6994486
  56.3906825  24.9976958  47.1794428  56.4098522  28.1806968  48.2634765
  57.1288522  28.3596968  49.2394765  56.2138522  29.0976968  47.3084765
  55.6208522  28.9496968  46.5424765  56.8268522  30.4126968  47.4154765
  56.8380401  30.8039769  48.4327640  58.2898522  30.3486968  46.8914765
  58.8227784  29.5797406  47.4507576  58.3388522  30.0226968  45.4134765
  57.8064906  30.7915097  44.8534597  59.3769434  29.9864691  45.0830908
  57.8684404  29.0551227  45.2385058  58.9718522  31.6716968  47.2074765
  58.9689766  31.8342160  48.2852897  60.0002573  31.6460944  46.8471610
  58.4355624  32.4838548  46.7166676  56.0008522  31.4016968  46.6204765
  55.2448522  30.9886968  45.7364765  56.0828522  32.6906968  46.9304765
  56.6658522  32.9636968  47.6654765  55.4048522  33.7076968  46.1484765
  54.3546178  33.4496361  46.0124194  55.4868522  35.0236968  46.8814765
  56.4973808  35.1251529  47.2772515  55.2730018  35.8586562  46.2142353
  54.5478522  35.1576968  48.0554765  53.2118522  35.4826968  47.8384765
  52.8228682  35.6073460  46.8279054  52.3688522  35.6486968  48.9344765
  51.3235944  35.9059088  48.7630743  52.8408522  35.4916968  50.2284765
  52.1733586  35.6231890  51.0800996  54.1738522  35.1646968  50.4354765
  54.5488258  35.0388699  51.4511844  55.0348522  34.9966968  49.3464765
  56.0812025  34.7409703  49.5133747  56.0598522  33.8576968  44.7704765
  57.2618522  34.1636968  44.7334765  55.3908522  33.7236968  43.6064765
  53.9918522  33.3356968  43.4984765  53.3406785  34.1927834  43.6701610
  53.7542732  32.5501057  44.2157643  53.9418522  32.8466968  42.0724765
  52.9186301  32.8703371  41.6975675  54.3295487  31.8302061  42.0051002
  54.8238522  33.8086968  41.3234765  54.3767634  34.7990688  41.2376054
  55.1512349  33.4718897  40.3398702  55.9988522  33.8566968  42.2684765
  56.6423900  32.9942724  42.0947480  56.8218522  35.1366968  42.1504765
  57.9018522  35.1786968  41.5744765  56.3138522  36.1816968  42.8064765
  55.4138522  36.0736968  43.1724765  56.9488522  37.4706968  42.9974765
  56.7957552  38.0219812  42.0697125  56.2598522  38.2126968  44.1194765
  56.4119180  37.6775998  45.0568383  56.6775810  39.2160399  44.2025756
  55.1924367  38.2803497  43.9093662  58.4188522  37.4486968  43.3134765
  59.1358522  38.2526968  42.7384765  58.9268522  36.5446968  44.1454765
  58.3528522  35.8186968  44.4714765  60.3278522  36.5636968  44.5204765
  60.5992748  37.5160089  44.9760317  60.5518522  35.4616968  45.5334765
  59.8175911  35.6116891  46.3249700  60.3468070  34.5213481  45.0218117
  61.9468522  35.4156968  46.1384765  62.6733743  35.1401697  45.3740477
  62.2049486  36.3917663  46.5493008  61.9628522  34.3746968  47.2534765
  61.2458362  34.6595112  48.0234555  61.6882585  33.4026965  46.8437044
  63.3618522  34.2926968  47.8654765  64.0400158  33.9238049  47.0959874
  63.6562108  35.3013957  48.1552674  63.4238522  33.4156968  49.0284765
  62.7738522  33.7666968  49.7604765  63.1458522  32.4526968  48.7504765
  64.3938522  33.4026968  49.4024765  61.2308522  36.4036968  43.3114765
  62.3298522  36.9526968  43.2964765  60.7598522  35.7386968  42.2524765
  59.8478522  35.3776968  42.3024765  61.4878522  35.5616968  41.0114765
  62.4201678  35.0308395  41.2040316  60.6268522  34.7126968  40.0934765
  59.6933844  35.2351008  39.8841156  61.1590196  34.5322795  39.1594809
  60.4091014  33.7602882  40.5768000  61.8418522  36.8936968  40.3144765
  62.8448522  36.9896968  39.5944765  61.0508522  37.9626968  40.5064765
  60.2788522  37.8536968  41.1044765  61.2888522  39.2956968  39.9164765
  61.2888273  39.2263018  38.8286881  60.1158522  40.2446968  40.3594765
  59.9624258  40.0860208  41.4268946  60.3738522  41.7266968  40.0974765
  60.5269250  41.8862383  39.0301358  59.5161000  42.3100777  40.4321828
  61.2629695  42.0432036  40.6428163  58.8998522  39.8336968  39.5434765
  58.6579270  38.7913030  39.7508155  58.0516500  40.4633722  39.8121052
  59.1173127  39.9514559  38.4819000  62.6568522  39.8926968  40.2934765
  63.4028522  40.4666968  39.4894765  63.0688522  39.6186968  41.5184765
  62.5228522  39.0156968  42.0694765  64.3278522  40.1016968  42.0424765
  64.5207202  41.1517779  41.8228616  64.1308522  39.9456968  43.5544765
  63.8066011  38.9369316  43.8101192  65.0444441  40.1822882  44.0998886
  63.0168522  40.9626968  43.9424765  63.5348643  41.8840995  44.2085241
  62.4324282  41.1236295  43.0365784  62.0878522  40.5556968  45.0804765
  61.3613977  41.3487735  45.2576547  61.5640280  39.6330333  44.8306771
  62.8508522  40.3426968  46.2984765  63.7868522  40.6296968  46.3324765
  62.3148522  39.7766968  47.3804765  61.0458522  39.3806968  47.4084765
  60.4598522  39.4956968  46.6064765  60.6758522  38.9546968  48.2344765
  63.0748522  39.5726968  48.4554765  64.0368522  39.8466968  48.4444765
  62.6848522  39.1466968  49.2714765  65.5828522  39.4266968  41.4474765
  66.7378522  39.7306968  41.7744765  65.3968522  38.4856968  40.5294765
  64.4848522  38.2226968  40.2874765  66.4938522  37.8046968  39.8504765
  67.4000563  37.8438014  40.4549302  66.1178522  36.3536968  39.6354765
  65.1599295  36.3345980  39.1157473  66.8831788  35.9048601  39.0022933
  66.0068522  35.5666968  40.9304765  66.7589130  35.9437975  41.6235136
  65.0155796  35.6969998  41.3646411  66.2548522  34.0896968  40.6684765
  67.4298522  33.7326968  40.5404765  65.2948522  33.3136968  40.5714765
  66.8028522  38.4616968  38.5034765  67.7998522  38.1866968  37.8164765
  65.8938522  39.3556968  38.1224765  65.1468522  39.5846968  38.7134765
  65.9888522  40.1106968  36.9024765  66.5345711  39.5623257  36.1346358
  64.5698522  40.3466968  36.4144765  64.1093630  40.9481226  37.1982723
  64.6321923  40.9322558  35.4972337  63.7218522  39.0986968  36.1654765
  63.8394900  38.4075460  37.0000859  62.2598522  39.4936968  36.0374765
  62.1413436  40.1845276  35.2027266  61.6565966  38.6033591  35.8600445
  61.9315929  39.9768980  36.9577279  64.2048522  38.3986968  34.9154765
  65.2479690  38.1084380  35.0410025  63.5994893  37.5095154  34.7394269
  64.1158158  39.0727505  34.0635239  66.6948522  41.3896968  37.3314765
  66.1278522  42.1946968  38.0864765  67.9678522  41.5576968  36.9544765
  68.4038522  40.8446968  36.4444765  68.6978522  42.7816968  37.2584765
  68.7773244  42.8835368  38.3407943  70.1108522  42.7866968  36.6604765
  70.1621085  42.0216365  35.8857799  70.2961374  43.7650330  36.2170493
  71.1048522  42.5196968  37.6634765  71.6628522  41.8206968  37.3064765
  67.9608522  43.9876968  36.7024765  67.4158522  43.9886968  35.5954765
  67.8738522  45.0136968  37.5494765  68.2788522  44.9276968  38.4364765
  67.1998522  46.2446968  37.1624765  67.7513508  47.0847070  37.5847695
  67.2104212  46.3138097  36.0747214  65.7618522  46.3036968  37.6474765
  65.1328522  47.3666968  37.5934765  65.2448522  45.2136968  38.2174765
  65.7748522  44.3876968  38.2964765  63.8368522  45.1396968  38.5574765
  63.2677730  45.9683783  38.1361276  63.3388522  43.8526968  37.9464765
  64.0417529  43.0330799  38.0956679  62.3637036  43.5712652  38.3439453
  63.1668522  44.0106968  36.4414765  64.2548522  44.1076968  35.6154765
  65.2658824  44.1235072  36.0224997  63.7788522  44.2246968  34.4004765
  64.3378522  44.2656968  33.5954765  62.4428522  44.2086968  34.4244765
  61.5688522  44.3056968  33.3514765  61.9846935  44.4117055  32.3495100
  60.2008522  44.2606968  33.6284765  59.4832019  44.3332566  32.8112782
  59.7258522  44.1236968  34.9394765  58.6579544  44.0883193  35.1549807
  60.6098522  44.0286968  36.0064765  60.1953964  43.9223839  37.0089857
  61.9808522  44.0696968  35.7514765  63.4128522  45.2596968  40.0094765
  62.2438522  45.0866968  40.3484765  64.3488522  45.6756968  40.8664765
  65.2378522  45.8636968  40.5124765  64.1048522  45.8156968  42.2964765
  63.7758923  44.8606718  42.7061250  65.3768522  46.2496968  43.0284765
  66.2264404  45.7758896  42.5367388  65.4636551  47.3325682  42.9392868
  65.3618522  45.8616968  44.5004765  64.3023431  45.7865666  44.7452143
  65.8271776  44.8808445  44.5979604  66.0288522  46.8226968  45.4964765
  67.2058522  47.1726968  45.4224765  65.3328522  47.2726968  46.5284765
  65.7868522  47.8636968  47.1684765  64.3958522  47.0036968  46.6444765
  63.0168522  46.8116968  42.6714765  62.3048522  46.5916968  43.6604765
  62.8718522  47.9216968  41.9484765  63.3388522  48.0616968  41.0984765
  61.9128522  48.8936968  42.4114765  61.6745407  48.7320914  43.4627569
  62.5228522  50.2866968  42.2574765  62.6255626  50.4873000  41.1910300
  61.8398353  51.0123835  42.6990268  63.8938522  50.3996968  42.9324765
  64.0308522  50.5956968  44.3134765  63.1417322  50.6690076  44.9397277
  65.3078522  50.6976968  44.8914765  65.4172707  50.8516875  45.9649830
  66.4508522  50.6146968  44.0714765  67.7358522  50.7056968  44.6004765
  67.7448522  50.4496968  45.5344765  66.3248522  50.4226968  42.6964765
  67.2072278  50.3580995  42.0598125  65.0478522  50.3126968  42.1354765
  64.9355106  50.1566976  41.0625628  60.5998522  48.7576968  41.6674765
  59.7008522  49.5946968  41.8354765  60.4148522  47.6726968  40.9004765
  60.9968522  46.8896968  41.0044765  59.1778522  47.5136968  40.1324765
  58.8854559  48.4815449  39.7252006  59.3658522  46.5346968  38.9764765
  59.6355750  45.5646879  39.3941268  58.1088522  46.3916968  38.1354765
  57.8387490  47.3612797  37.7170818  58.2912637  45.6852097  37.3257218
  57.2933448  46.0258513  38.7593405  60.4728522  47.0726968  38.1094765
  61.3882819  47.1521526  38.6958018  60.6375236  46.3980917  37.2693033
  60.1953650  48.0579178  37.7347216  58.1878522  46.9656968  41.1284765
  58.5428522  46.0136968  41.8224765  57.0018522  47.5416968  41.3224765
  56.5978522  48.8276968  40.7524765  56.5642771  48.7350409  39.6669407
  57.3350116  49.5812639  41.0296617  55.2328522  49.1036968  41.3564765
  54.4264306  48.7236498  40.7293022  55.0784463  50.1667412  41.5414001
  55.3278522  48.3446968  42.6454765  54.3339421  48.1046903  43.0231517
  55.8710724  48.9211722  43.3942672  56.0758522  47.0766968  42.3314765
  56.6554358  46.8013598  43.2125954  55.2518522  45.8846968  41.8754765
  54.4858522  45.9246968  40.9154765  55.4688522  44.7486968  42.5544765
  56.0618522  44.7926968  43.3354765  54.8418522  43.4566968  42.2474765
  54.2752323  43.6228566  41.3312713  55.8498522  42.3466968  42.0004765
  55.3323478  41.4171118  41.7634952  56.7088522  42.7426968  40.8514765
  57.2270736  43.6720225  41.0879108  57.4405958  41.9585833  40.6570082
  56.0889149  42.8879305  39.9667808  56.7988522  42.1656968  43.1774765
  56.2270250  41.9132261  44.0704346  57.5019900  41.3623240  42.9577285
  57.3478224  43.0917948  43.3479905  54.0108522  42.9936968  43.4144765
  54.3638522  43.2526968  44.5814765  52.9128522  42.3066968  43.1224765
  52.5788522  42.2516968  42.1944765  52.1468522  41.6946968  44.1754765
  52.8479305  41.2767027  44.8978817  51.2698522  42.7816968  44.8974765
  51.4889782  43.6910654  44.3378938  49.7598522  42.6216968  45.0354765
  49.5399438  41.7127213  45.5953902  49.3496607  43.4818958  45.5645319
  49.3089333  42.5559261  44.0453013  51.8408522  42.6846968  46.1954765
  52.7538522  43.0116968  46.1254765  51.3308522  40.5556968  43.6224765
  50.9438522  40.5306968  42.4554765  51.1098522  39.6076968  44.5164765
  51.2558522  39.7846968  45.4644765  50.4728522  38.3756968  44.1394765
  50.4683793  38.2893879  43.0529085  51.1978522  37.1796968  44.7164765
  50.9280590  37.0132894  45.7593664  50.9985249  36.2754404  44.1414208
  52.9818522  37.4026968  44.6924765  53.2762523  36.2274981  45.2412341
  49.0818522  38.3906968  44.6894765  48.7488522  39.2366968  45.5114765
  48.3228522  37.4006968  44.2584765  48.6878522  36.7676968  43.5964765
  46.9608522  37.2016968  44.6504765  46.8651770  37.3579314  45.7249699
  46.0348522  38.1756968  43.9324765  45.0850500  38.1416199  44.4661558
  46.4818599  39.1628459  44.0500380  45.7978522  37.9016968  42.4644765
  46.2262665  36.9269215  42.2312915  44.7210692  37.8740925  42.2975082
  46.5308522  39.1416968  41.3894765  45.5838522  38.9786968  39.9044765
  44.5335215  39.1755715  40.1192898  45.9428135  39.6932391  39.1637493
  45.6908109  37.9666866  39.5139685  46.6428522  35.7826968  44.2414765
  47.4538522  35.1056968  43.5874765  45.4838522  35.2716968  44.6344765
  44.8678522  35.7806968  45.2064765  45.1788522  33.9316968  44.2354765
  46.0589041  33.4257494  43.8384562  44.7158522  33.1996968  45.4524765
  45.1520278  33.6055012  46.3652595  43.6293676  33.1963608  45.5398840
  45.2128522  31.7736968  45.2424765  44.7382049  31.2669343  44.4022369
  46.2828330  31.8631581  45.0547534  45.0108522  30.9486968  46.4744765
  45.9388522  30.6386968  47.2284765  43.7358522  30.6806968  46.7224765
  43.4888522  30.0406968  47.4144765  43.0718522  31.1226968  46.1544765
  44.1558522  33.8326968  43.1154765  43.1298522  34.5256968  43.0844765
  44.4578522  32.9426968  42.1814765  45.2818522  32.4176968  42.2614765
  43.5358522  32.6276968  41.1154765  43.2292264  33.5358238  40.5964532
  44.2288522  31.6946968  40.1064765  45.1680481  32.1771039  39.8357481
  44.4378488  30.7665953  40.6384991  43.4358522  31.3886968  38.8474765
  43.9131082  30.5405862  38.3565224  42.4340579  31.1046999  39.1697388
  43.3438522  32.5486968  37.8754765  44.3628522  32.9016968  37.3074765
  42.2688522  33.1006968  37.6674765  42.3488522  31.9156968  41.7734765
  42.4968522  31.2156968  42.7824765  41.1518522  32.1286968  41.2404765
  41.0888522  32.6606968  40.4274765  39.9898522  31.4576968  41.7634765
  40.0094092  31.4889202  42.8528533  38.7058522  32.1306968  41.2784765
  37.9034983  31.5951959  41.7859864  38.7635641  33.1484616  41.6643834
  38.4288522  32.1696968  39.8174765  39.3463208  32.4540122  39.3021930
  38.1281985  31.1715860  39.4989106  37.1318522  33.3376968  39.4004765
  35.8098522  32.2586968  38.9374765  35.5532231  31.6156444  39.7793340
  34.9393580  32.8504745  38.6543872  36.1208449  31.6438533  38.0928746
  40.0128522  30.0046968  41.3204765  40.4988522  29.7006968  40.2254765
  39.5468522  29.0666968  42.1514765  39.1428522  29.3546968  42.9984765
  39.5548522  27.6716968  41.7654765  40.4735136  27.4444950  41.2246069
  39.4778522  26.7596968  43.0154765  40.3883291  26.9631049  43.5791751
  38.6115818  27.0614755  43.6042082  39.3908522  25.2656968  42.7114765
  40.3008522  24.7146968  42.0714765  38.3858522  24.6636968  43.0924765
  38.3438522  27.4806968  40.8744765  37.2108522  27.5706968  41.3454765
  38.6138522  27.2856968  39.5804765  39.5558522  27.2896968  39.3124765
  37.6268522  27.0336968  38.5384765  36.6490156  27.2944892  38.9433493
  37.9138522  27.9436968  37.3014765  38.9852317  27.8837055  37.1100440
  37.1518522  27.5686968  36.0394765  36.0803239  27.6289077  36.2300090
  37.4168017  28.2565754  35.2365286  37.4116339  26.5515116  35.7463051
  37.4438522  29.3126968  37.6804765  37.9922898  29.6557814  38.5577513
  37.6180678  29.9994826  36.8521807  36.3783163  29.2815589  37.9079947
  37.7898522  25.5626968  38.1934765  38.9098522  25.0466968  38.1264765
  36.6708522  24.8856968  38.0324765  35.8198522  25.3566968  38.1004765
  36.6138522  23.4986968  37.6914765  37.3336726  22.8267020  38.1587888
  35.2148522  23.0536968  38.0754765  34.5273790  23.8375468  37.7575773
  34.7928522  21.7156968  37.4454765  35.4796360  20.9312168  37.7633112
  33.7819301  21.4649966  37.7668564  34.8174768  21.8012268  36.3591161
  35.2268522  23.0916968  39.5234765  34.4168522  23.5646968  39.7484765
  36.9298522  23.3666968  36.2174765  36.3488522  24.0166968  35.3464765
  37.8728522  22.4586968  35.9844765  38.2698522  21.9566968  36.7314765
  38.3998522  22.2326968  34.6584765  38.9054950  21.2687345  34.6018961
  37.6043350  22.2693471  33.9142262  39.3998522  23.3316968  34.3654765
  39.6078522  23.7416968  33.2184765  39.9938522  23.8116968  35.4644765
  39.8128522  23.3966968  36.3314765  40.9958522  24.8466968  35.4144765
  40.8147765  25.5006848  34.5614756  40.9726835  25.4333855  36.3328222
  42.3638522  24.2136968  35.2684765  42.6158522  23.0556968  35.6094765
  43.2798522  25.0096968  34.7724765  43.0678522  25.9466968  34.6064765
  44.6258522  24.5406968  34.5824765  44.6414086  23.5707795  34.0853671
  45.3428522  25.5586968  33.6914765  44.6634507  25.6185947  32.8412265
  45.2429322  26.4576404  34.2997662  46.7678522  25.4436968  33.1914765
  47.4039486  25.9579454  33.9119143  47.2478522  24.0216968  33.0214765
  46.6124810  23.5069091  32.3007852  48.2764018  24.0255430  32.6606833
  47.2015583  23.5049898  33.9801063  46.7678522  26.1226968  31.8484765
  46.4669494  27.1636101  31.9670363  47.7691143  26.0810475  31.4197097
  46.0674925  25.6159365  31.1845569  45.2218522  24.4386968  35.9724765
  45.1988522  25.4136968  36.7184765  45.6808522  23.2446968  36.3394765
  45.6298522  22.5106968  35.6954765  46.3188522  23.0246968  37.6144765
  45.7151392  23.4583117  38.4117266  46.4728522  21.5216968  37.8784765
  46.8883546  21.0783098  36.9735649  47.1847528  21.4113045  38.6964686
  45.1698522  20.8136968  38.2394765  44.3805752  21.0762702  37.5350634
  45.3071855  19.7323913  38.2439493  44.7798522  21.2816968  39.6364765
  45.4333570  20.7967453  40.3616334  44.9142846  22.3619291  39.6923823
  43.3368522  20.9356968  39.9464765  42.6865883  21.4110658  39.2121185
  43.2006421  19.8549973  39.9060467  42.9998522  21.4156968  41.2724765
  43.6278522  20.9736968  41.9734765  43.1118522  22.4486968  41.3094765
  42.0138522  21.1636968  41.4854765  47.6868522  23.6606968  37.6514765
  48.2558522  23.9836968  36.6074765  48.2288522  23.8646968  38.8504765
  47.6808522  23.7236968  39.6484765  49.5948522  24.3496968  39.0044765
  49.7516269  24.7843910  39.9916754  50.5278522  23.1496968  38.8454765
  50.3303903  22.7054488  37.8698988  51.5518646  23.5221014  38.8739972
  50.3418522  22.1036968  39.9224765  50.2630294  22.5666594  40.9061194
  49.4529935  21.5021321  39.7323392  51.5778522  21.2116968  39.8784765
  51.6749573  20.8170915  38.8670635  52.4472551  21.8257481  40.1133786
  51.4908522  20.0636968  40.8614765  52.4275119  19.5063290  40.8509702
  51.3119486  20.4536897  41.8634736  50.3978522  19.1816968  40.4824765
  50.5618522  18.8276968  39.5184765  50.3528522  18.3826968  41.1464765
  49.4998522  19.7066968  40.5104765  50.0208522  25.4876968  38.0564765
  51.1398522  25.5536968  37.5484765  49.1168522  26.4136968  37.7994765
  48.2338522  26.3366968  38.2144765  49.3758522  27.4916968  36.8794765
  50.2966075  27.3513114  36.3132601  48.2048522  27.4526968  35.9174765
  48.2291862  26.5669920  35.2826268  47.2485740  27.4994841  36.4384783
  48.2358522  28.8586968  34.8094765  47.1346982  28.5316994  34.1390804
  49.5898522  28.8586968  37.5464765  48.9408522  29.2226968  38.5514765
  50.5498522  29.5976968  36.9734765  50.9408522  29.2716968  36.1344765
  50.9838522  30.9066968  37.4284765  50.4274129  31.2181768  38.3124757
  52.4718522  30.8696968  37.7524765  53.0139954  30.4813182  36.8903029
  52.9828522  32.2816968  38.0854765  52.4414614  32.6705810  38.9478950
  54.0475998  32.2386441  38.3147359  52.8221383  32.9379268  37.2301214
  52.6728522  29.9136968  38.9214765  51.9721984  30.2411914  39.6895469
  52.3730469  28.9333720  38.5510988  54.0808522  29.8246968  39.5194765
  54.3811841  30.8046119  39.8905114  54.0823350  29.1092858  40.3418415
  54.7820334  29.4967946  38.7520620  50.7208522  31.9266968  36.3474765
  51.2018522  31.7526968  35.2344765  49.9798522  32.9846968  36.6104765
  49.7068522  33.1806968  37.5324765  49.6408522  33.9476968  35.5854765
  50.0914016  33.6853178  34.6282609  48.1398522  33.9276968  35.4334765
  47.6542544  33.9569753  36.4088927  47.8027676  34.7739201  34.8348280
  47.7798522  32.6366968  34.7294765  48.1732488  32.7294084  33.7171798
  48.3180074  31.8492694  35.2571593  46.3068522  32.2876968  34.6684765
  45.6727669  33.0492001  35.1225110  46.0114174  32.1418671  33.6294618
  46.1198522  31.0396968  35.3844765  46.7868522  30.7706968  36.0494765
  45.1038522  30.2226968  35.1524765  44.1738522  30.4746968  34.2374765
  44.2258522  31.3046968  33.6844765  43.4198522  29.8316968  34.1024765
  44.9858522  29.1386968  35.9094765  45.6578522  28.9596968  36.6284765
  44.2288522  28.5046968  35.7604765  50.1648522  35.3356968  35.9454765
  50.2888522  35.6016968  37.1434765  50.5478522  36.2446968  35.0304765
  50.3618522  36.0866968  34.0834765  51.0448522  37.5656968  35.4334765
  50.8476350  37.6942149  36.4977545  52.6418522  37.8286968  35.1604765
  53.0774020  38.2971303  36.0430668  53.3648522  36.5166968  34.8724765
  52.9301312  36.0478724  33.9896841  54.4217750  36.7151295  34.6946023
  53.2599970  35.8482749  35.7270636  52.9118522  38.7636968  33.9994765
  52.4517562  39.7318149  34.1973678  53.9874758  38.8913001  33.8776116
  52.4908626  38.3416661  33.0869203  50.2328522  38.5776968  34.6564765
  49.6518522  38.2676968  33.6094765  50.1708522  39.7926968  35.1584765
  50.6328522  39.9856968  36.0034765  49.4998522  40.8936968  34.4734765
  49.2936471  40.6283511  33.4365723  48.1948522  41.1826968  35.1644765
  47.5470780  40.3298730  34.9615495  48.4171171  41.2238641  36.2307802
  47.4868522  42.4736968  34.7404765  46.6040286  42.5639400  35.3733899
  48.1753625  43.2897960  34.9596515  46.9928522  42.5666968  33.0274765
  45.3588522  41.8716968  33.0574765  44.7225799  42.4661836  33.7130998
  44.9439287  41.8739691  32.0495410  45.4057261  40.8477599  33.4282289
  50.5218522  41.9816968  34.7024765  50.8028522  42.3276968  35.8384765
  51.2208522  42.4406968  33.6894765  51.0408522  42.1226968  32.7794765
  52.2788522  43.3986968  33.9184765  52.5108039  43.5156954  34.9770647
  53.4928522  42.8236968  33.2174765  53.6066595  41.7795072  33.5087071
  53.3400550  42.8852594  32.1399965  54.7458522  43.5936968  33.5954765
  54.4883840  44.6501155  33.5193816  54.9535394  43.3449307  34.6361895
  56.2268522  43.2666968  32.5964765  55.3798522  43.5096968  31.0694765
  54.9771609  44.5219561  31.0338426  56.0740284  43.3660214  30.2414804
  54.5639522  42.7915623  30.9876768  51.7998522  44.7346968  33.3604765
  51.2248522  44.7066968  32.2744765  51.9208522  45.9146968  33.9664765
  52.3898522  45.9926968  34.8194765  51.3998522  47.1146968  33.3234765
  50.8418408  46.8421006  32.4277009  50.4598522  47.8216968  34.2844765
  51.0558095  48.2302915  35.1005558  49.6828522  48.9446968  33.6124765
  49.0862559  48.5367734  32.7965285  49.0251546  49.4187360  34.3410502
  50.3798920  49.6839829  33.2178980  49.5408522  46.8376968  34.7484765
  49.9988522  46.2286968  35.3464765  52.5518522  48.0046968  32.9334765
  53.3038522  48.4496968  33.7994765  52.7558522  48.1786968  31.6304765
  52.1268522  47.7636968  31.0014765  53.8258522  48.9916968  31.0724765
  54.4681581  49.3844590  31.8606897  54.7008522  48.1656968  30.0824765
  55.5410099  48.7546959  29.7146253  55.2228522  46.9776968  30.8714765
  54.3832206  46.3879218  31.2392877  55.8464447  46.3583805  30.2267437
  55.8140823  47.3329060  31.7154996  53.9458522  47.6946968  28.8374765
  53.5686984  48.5595922  28.2917541  54.6199913  47.1268302  28.1962560
  53.1103361  47.0617138  29.1363847  53.3408522  50.2296968  30.3324765
  52.3228522  50.2236968  29.6254765  54.0618522  51.3346968  30.4954765
  54.7918522  51.3376968  31.1354765  53.8028522  52.5326968  29.7054765
  52.7401647  52.7746629  29.7211836  54.5758522  53.7016968  30.2934765
  54.0666341  53.9716154  31.2186467  55.5723614  53.3251802  30.5243548
  54.6938522  54.9506968  29.3864765  54.9910935  54.6444927  28.3834872
  53.6959619  55.3878454  29.3515767  55.6718522  56.0086968  29.8824765
  55.3948522  57.1956968  29.7014765  56.8038522  55.7436968  30.5484765
  57.3698522  56.4986968  30.8134765  57.0248522  54.8116968  30.7564765
  54.2968522  52.2286968  28.2854765  55.5038522  51.9626968  28.1134765
  53.4048522  52.2396968  27.2814765  52.4678522  52.4546968  27.4704765
  53.7838522  51.9536968  25.9184765  54.7741713  52.3610880  25.7150069
  53.8218522  50.4126968  25.6864765  54.4946682  49.9861288  26.4304245
  52.4668522  49.7546968  25.7974765  51.7935762  50.1804509  25.0534789
  52.5674667  48.6831762  25.6247934  52.0602684  49.9249356  26.7943761
  54.3288522  50.1956968  24.3624765  54.6268522  49.2696968  24.3664765
  52.8788522  52.6146968  24.8904765  51.8258522  53.2116968  25.1544765
  53.4228522  52.5266968  23.6824765  54.2348522  51.9876968  23.6024765
  52.8728522  53.0726968  22.4694765  51.9688921  53.6552802  22.6471052
  53.9548522  54.0036968  21.9304765  54.2365784  54.6568702  22.7563663
  54.8017561  53.3721033  21.6622535  53.5548522  54.8436968  20.7374765
  52.4108522  55.3216968  20.6764765  54.4088522  55.0086968  19.8694765
  52.4708522  51.9846968  21.4654765  51.7578522  52.2386968  20.4954765
  52.9348522  50.7546968  21.6434765  53.3568522  50.5296968  22.4954765
  52.6118522  49.6736968  20.7264765  52.8688240  49.9652106  19.7081031
  53.4738522  48.4576968  21.1234765  53.4269341  48.3488599  22.2070135
  52.9978522  47.1776968  20.4664765  53.0449251  47.2856123  19.3828532
  53.6360413  46.3503263  20.7767558  51.9697360  46.9751982  20.7665980
  54.8968522  48.7216968  20.6394765  55.2791055  49.6274781  21.1101618
  55.5339432  47.8781354  20.9052188  54.8953381  48.8483119  19.5568560
  51.1148522  49.4196968  20.8574765  50.6498522  49.2936968  21.9884765
  50.3298522  49.4106968  19.7734765  50.7858522  49.6256968  18.4044765
  51.2917416  48.7276149  18.0500400  51.4810828  50.4649878  18.3859255
  49.4948522  49.9186968  17.6304765  49.5909606  49.6696030  16.5736820
  49.1907124  50.9605226  17.7314678  48.5298522  49.0136968  18.3174765
  48.6881638  47.9809013  18.0070415  47.4834324  49.2806376  18.1696662
  48.9008522  49.1746968  19.7664765  48.4050136  50.0453754  20.1956163
  48.5388522  47.9486968  20.5624765  49.2968522  46.9716968  20.5744765
  47.3238522  48.0066968  21.1254765  46.8658522  48.8706968  21.1004765
  46.7198522  46.9146968  21.8854765  47.2030958  46.8153139  22.8574322
  45.2438522  47.2116968  22.1044765  45.1014996  48.2877239  22.0044735
  44.6807686  46.6973041  21.3257359  44.7498522  46.7606968  23.4674765
  44.8688886  45.6778382  23.4307534  45.3547598  47.1648727  24.2791604
  43.2898522  47.0796968  23.7444765  42.8788522  47.4126968  24.8514765
  42.3888522  46.8966968  22.8084765  41.5148522  47.2436968  23.0704765
  42.6058522  46.4706968  21.9554765  46.8728522  45.5966968  21.1284765
  47.5268522  44.6786968  21.6014765  46.4278522  45.5146968  19.8754765
  46.0358522  46.2936968  19.4384765  46.5528522  44.2716968  19.1254765
  46.1793926  43.4388778  19.7213285  45.7288522  44.3516968  17.8144765
  45.7573944  43.3335425  17.4263446  44.7152944  44.5882715  18.1382555
  46.1528522  45.3256968  16.7184765  46.5138522  46.4736968  17.0024765
  46.1048522  44.9166968  15.5604765  47.9698522  43.8416968  18.7894765
  48.1488522  42.8286968  18.1274765  49.0078522  44.5466968  19.2184765
  48.8818522  45.2776968  19.8494765  50.3548522  44.1396968  18.9114765
  50.3372237  43.2252533  18.3185334  51.0668522  45.2116968  18.1234765
  50.7001503  46.1539603  18.5306231  52.1213298  45.0944137  18.3733198
  50.8998522  45.2146968  16.5944765  51.2373093  44.2841310  16.1381094
  49.8535084  45.3846624  16.3407477  51.7318522  46.3646968  16.0304765
  51.2438522  47.3196968  15.4144765  53.0398522  46.3296968  16.2544765
  53.5938522  47.0506968  15.8964765  53.3898522  45.5646968  16.7624765
  51.1398522  43.8456968  20.1574765  52.3348522  43.5346968  20.0384765
  50.5238522  43.9516968  21.3464765  49.5798522  44.2126968  21.3874765
  51.2178522  43.5846968  22.5634765  52.1860378  44.0761858  22.6591554
  50.3368522  43.9396968  23.7844765  49.3393035  43.5190633  23.6577307
  50.9868522  43.3466968  25.0484765  51.9843222  43.7672357  25.1761531
  50.3769801  43.5885922  25.9189036  51.0599521  42.2639663  24.9462492
  50.1378522  45.4556968  23.8864765  49.8155339  45.7799174  22.8969854
  49.3254050  45.6011023  24.5984359  51.3648522  46.2886968  24.3274765
  52.1776114  46.1441556  23.6156969  51.0950993  47.3442669  24.3607074
  51.6874841  45.9653387  25.3171472  51.4938522  42.0746968  22.5044765
  50.5998522  41.2926968  22.1734765  52.7028522  41.6226968  22.8294765
  53.4048522  42.2576968  23.1034765  53.0288522  40.2176968  22.8124765
  52.3376784  39.6666647  22.1747135  54.4388522  40.0586968  22.2544765
  55.1363026  40.7680447  22.6999961  54.8180337  39.0453586  22.3866399
  54.2938522  40.3546968  20.7744765  53.4309765  39.7829856  20.4328734
  54.0769461  41.4200850  20.6970051  55.4848522  40.0226968  19.9194765
  56.2902226  40.7467899  20.0426294  55.8622075  39.0214642  20.1274084
  55.0218522  40.0696968  18.5384765  54.5688522  40.8776968  18.2184765
  55.1938522  39.0376968  17.6934765  55.8198522  37.9036968  18.0554765
  56.1828522  37.8006968  18.9824765  55.9278522  37.1596968  17.3964765
  54.6598522  39.1356968  16.4714765  54.1528522  39.9556968  16.2104765
  54.7758522  38.3886968  15.8164765  52.8948522  39.5786968  24.1814765
  53.7478522  39.6376968  25.0604765  51.7118522  38.9966968  24.3224765
  51.1298522  39.0306968  23.5374765  51.3048522  38.2236968  25.4904765
  51.6227186  38.6952948  26.4203450  49.7628522  38.1786968  25.4624765
  49.4464542  37.7914754  24.4939461  49.3966832  37.5230795  26.2525311
  49.0548522  39.5286968  25.6484765  48.1698522  40.1716968  24.8734765
  47.8558522  39.9076968  23.9794765  47.8138522  41.3036968  25.4394765
  46.9937528  41.8993763  25.0386001  48.4658522  41.3906968  26.5734765
  48.4828522  42.2216968  27.1124765  49.2258522  40.3376968  26.7364765
  49.7019558  40.1529877  27.6994454  51.9498522  36.8056968  25.4454765
  52.0098522  36.2206968  24.3544765  52.4068522  36.1676968  26.5394765
  52.1618522  36.5116968  27.4284765  53.1888522  34.9306968  26.4794765
  53.2356872  34.5506119  25.4589662  54.6368522  35.1876968  26.9804765
  54.5923891  35.5820457  27.9956667  55.4498522  33.9016968  26.9714765
  55.4951540  33.5069692  25.9564696  56.4598007  34.1072250  27.3262479
  54.9778758  33.1682710  27.6252551  55.3118522  36.2156968  26.0984765
  54.7493520  37.1487694  26.1312028  56.3267209  36.3911535  26.4553466
  55.3463349  35.8486287  25.0727217  52.6078522  33.7896968  27.3044765
  52.4038522  33.9466968  28.5084765  52.3808522  32.6236968  26.7034765
  52.6278522  32.5286968  25.7564765  51.8638522  31.4476968  27.3854765
  51.7134986  31.6421128  28.4474065  50.5278522  31.1066968  26.7624765
  50.6028064  31.0373061  25.6772732  50.2108014  30.1452574  27.1664730
  49.5008522  32.1806968  27.1354765  48.7648522  32.0676968  28.3204765
  48.9023243  31.1853290  28.9454789  47.8678522  33.0606968  28.7054765
  47.2683747  32.9624331  29.6105029  47.7138522  34.1716968  27.8884765
  46.8738522  35.1876968  28.2704765  46.1978522  35.2876968  27.5934765
  48.4228522  34.3036968  26.7064765  48.2846725  35.1804983  26.0738423
  49.3188522  33.3046968  26.3274765  49.8798569  33.3998338  25.3977868
  52.8778522  30.3266968  27.2414765  53.2038522  29.9306968  26.1324765
  53.4668522  29.8196968  28.3144765  53.1298522  30.0866968  29.1964765
  54.5118522  28.8196968  28.2494765  54.7269861  28.5824623  27.2075857
  55.7858522  29.3246968  28.9054765  55.5257987  29.5373338  29.9424224
  56.4836276  28.4880384  28.8706587  56.4458522  30.5726968  28.2734765
  55.7469828  31.4054515  28.3522288  57.7588522  30.9406968  28.9714765
  58.4584401  30.1085455  28.8927365  58.1888498  31.8223971  28.4962846
  57.5648648  31.1533710  30.0227799  56.7478522  30.2846968  26.8114765
  55.8206269  30.0537573  26.2870533  57.2135865  31.1591563  26.3570391
  57.4261607  29.4344094  26.7407085  54.0808522  27.5566968  28.9454765
  53.0368522  27.5126968  29.6104765  54.9018522  26.5126968  28.7714765
  55.6378522  26.6286968  28.1314765  54.7428522  25.1986968  29.3774765
  55.4578553  24.4898788  28.9598080  55.0008522  25.3256968  30.8764765
  54.3388779  26.1078066  31.2482202  54.7261598  24.3726722  31.3285698
  56.4268522  25.6606968  31.2374765  56.6640717  26.6196901  30.7768687
  56.4815029  25.7556785  32.3219537  57.4258522  24.6126968  30.7694765
  57.0638522  23.4306968  30.6604765  58.5768522  24.9776968  30.5144765
  53.3738522  24.6486968  29.0874765  52.9578522  24.8296968  27.9564765
  52.5668522  24.0496968  29.9594765  52.8118522  23.9626968  30.9074765
  51.2518522  23.5676968  29.5304765  51.3192718  23.0802141  28.5578952
  50.7398522  22.5416968  30.5614765  50.5490320  23.0951575  31.4809155
  49.7997733  22.1523675  30.1706127  51.6908522  21.3786968  30.8544765
  52.0733698  20.9796384  29.9150439  52.5221696  21.7363600  31.4620047
  50.9448522  20.2776968  31.6094765  50.6911055  20.7047005  32.5797235
  50.0316090  20.0973553  31.0424111  51.6968522  18.9396968  31.8154765
  50.9449487  18.1645123  31.9632288  52.2510087  18.7376346  30.8988628
  52.6138522  18.9466968  32.9444765  52.0888522  19.1426968  33.8194765
  53.0768522  18.0186968  33.0144765  53.3338522  19.6836968  32.7974765
  50.2358522  24.7106968  29.3464765  49.1358522  24.5296968  28.8014765
  50.6078522  25.9496968  29.7184765  51.5308522  26.1166968  30.0034765
  49.7178522  27.0936968  29.6324765  48.7603261  26.7760005  30.0451651
  50.2358522  28.2406968  30.4504765  51.1900104  28.5759060  30.0438846
  49.5198455  29.0619779  30.4199471  50.3743946  27.9183125  31.4824521
  49.5018522  27.6196968  28.2264765  48.6708522  28.4976968  27.9784765
  50.2078522  27.0216968  27.2694765  50.9098522  26.3946968  27.5404765
  50.0148522  27.3106968  25.8584765  50.1831599  28.3720446  25.6759593
  51.0498522  26.4976968  25.0414765  50.9457152  26.7418391  23.9842872
  52.4538522  26.8376968  25.5024765  52.5589023  26.5933811  26.5595362
  53.1762506  26.2622797  24.9235669  52.6370754  27.9021816  25.3561791
  50.8578522  25.0146968  25.2424765  49.8570518  24.7300610  24.9176950
  51.5980949  24.4693274  24.6570598  50.9795057  24.7718337  26.2980895
  48.5808522  26.9686968  25.4354765  48.0908522  27.3426968  24.3744765
  47.8678522  26.2166968  26.2744765  48.2818522  25.8756968  27.0964765
  46.5068522  25.8236968  25.9894765  46.1396090  25.8500947  24.9635453
  46.4498522  24.3516968  26.5014765  47.4283750  23.9000663  26.3383126
  46.0888522  24.2636968  27.9864765  45.1101800  24.7147443  28.1503602
  46.0623856  23.2180616  28.2931473  46.8365740  24.7955370  28.5748300
  45.5338522  23.6046968  25.5654765  45.9344081  23.6481958  24.5526760
  45.4599445  22.5642987  25.8820348  44.5440335  24.0607824  25.5840669
  45.4738522  26.7826968  26.5794765  44.2928522  26.4296968  26.6304765
  45.8838522  27.9616968  27.0714765  46.8148522  28.2496968  26.9754765
  44.9588522  28.9586968  27.5944765  44.0471090  28.4693032  27.9369928
  45.5718522  29.6996968  28.7534765  46.5841579  29.9070564  28.4065780
  45.0237709  30.6364934  28.8540697  45.6318522  29.0016968  30.1004765
  46.1903906  28.0686594  30.0257976  46.3388522  29.9366968  31.0544765
  45.7806181  30.8698442  31.1300362  46.4036530  29.4719947  32.0383228
  47.3429054  30.1435407  30.6840806  44.2348522  28.6266968  30.6104765
  43.7557644  27.9548137  29.8983336  44.3215534  28.1294793  31.5765815
  43.6329998  29.5289114  30.7194785  44.5588522  29.9886968  26.5364765
  43.4588522  30.5356968  26.6224765  45.3263218  30.2706789  25.6189166
  53.8358522  60.2496968  34.4594765  53.1804409  60.5054160  35.1841451
  53.4922336  60.5946056  33.5745671  54.7682451  60.4874048  34.7664586
  53.8298522  58.8106968  34.3364765  53.5407954  58.5187094  33.3268782
  55.2308522  58.2686968  34.6194765  55.8687645  59.1339589  34.7997229
  55.1569953  57.6761407  35.5313550  55.8328522  57.4166968  33.5074765
  55.5408129  57.8890498  32.5695551  56.9145159  57.4819198  33.6251695
  55.3398522  55.6676968  33.4744765  53.7038522  55.7856968  32.8084765
  53.7455153  56.2432638  31.8200456  53.2706694  54.7886517  32.7287623
  53.0866307  56.3979341  33.4659750  52.8278522  58.3256968  35.3894765
  52.2818522  59.1716968  36.1054765  52.4548522  57.0456968  35.5174765
  52.8758522  56.3136968  35.0224765  51.5618522  56.6166968  36.5904765
  51.5135255  57.4319408  37.3123774  50.0948522  56.2956968  36.0524765
  49.4063590  56.2851303  36.8974415  49.6438522  57.3416968  35.0444765
  50.3316460  57.3525318  34.1989453  48.6407893  57.0997476  34.6931559
  49.6354705  58.3234544  35.5179539  50.0098522  55.0146968  35.3584765
  49.4940696  55.1061802  34.4026000  50.9944836  54.5752455  35.1988420
  49.2008522  54.1216968  36.2874765  48.2158575  54.5602924  36.4472233
  49.0900390  53.1347878  35.8382213  49.7162708  54.0293596  37.2434667
  52.3188522  55.3906968  37.1094765  52.9298522  54.6616968  36.3064765
  52.4188522  55.2786968  38.4364765  51.8598522  55.8496968  38.9984765
  53.2458522  54.2956968  39.1294765  53.5916832  53.5475878  38.4161511
  54.4828522  54.9606968  39.7894765  54.1757277  55.8110012  40.3983739
  55.0122934  54.2403080  40.4130405  55.3978522  55.4376968  38.6824765
  55.2608380  54.6612190  37.9298742  54.8978481  56.3501352  38.3575856
  56.8708522  55.7086968  38.8624765  57.0920943  56.6891962  39.2841064
  57.3944352  54.9417761  39.4332593  57.3498522  55.6736968  37.4814765
  57.4428522  56.5176968  36.9914765  57.6698522  54.5136968  36.8534765
  57.6138522  53.3006968  37.4384765  57.3318522  53.2136968  38.3924765
  57.8698522  52.4856968  36.9194765  57.8958522  54.5256968  35.5484765
  57.8248522  55.3826968  35.0354765  58.1028522  53.6696968  35.0764765
  52.4818522  53.5626968  40.2154765  51.3468522  53.9296968  40.5294765
  53.0338522  52.4906968  40.7864765  53.9188522  52.1756968  40.4964765
  52.3538522  51.7726968  41.8334765  51.3394833  52.1545880  41.9488626
  52.3163539  50.7102536  41.5928364  53.0978522  51.9556968  43.1324765
  54.3348522  52.0026968  43.1904765  52.3628522  52.0436968  44.2254765
  51.3958522  51.9226968  44.1814765  52.9658522  52.2006968  45.5344765
  54.0518363  52.2245539  45.4440955  52.4858522  53.4616968  46.2664765
  51.4490339  53.3488707  46.5833018  53.3778522  53.6426968  47.4964765
  54.4148416  53.7560593  47.1804026  53.0662225  54.5320495  48.0442349
  53.2888181  52.7691008  48.1422335  52.5288522  54.6726968  45.3324765
  53.5444349  54.6884279  44.9369450  51.8305531  54.4353400  44.5298934
  52.1888522  56.0406968  45.9134765  52.8870635  56.2789655  46.7158660
  52.2628937  56.7966405  45.1317053  51.1731818  56.0258768  46.3088167
  52.5058522  50.9876968  46.2924765  51.3488522  50.5606968  46.1794765
  53.4218522  50.4356968  47.0724765  54.1348522  50.9916968  47.4254765
  53.1408522  49.2096968  47.7594765  52.1952255  48.8020360  47.4021224
  54.2398522  48.1766968  47.5184765  55.1800283  48.7256681  47.4655744
  54.2507978  47.5215102  48.3895165  54.0698522  47.3456968  46.2644765
  54.0969197  48.0324458  45.4184599  54.9226937  46.6690924  46.2099784
  52.7638522  46.5296968  46.2214765  51.9474821  47.1765763  45.9002513
  52.8773452  45.7095457  45.5125540  52.4328522  45.9736968  47.5314765
  51.6778522  46.3626968  48.0154765  53.0778522  44.9736968  48.1274765
  54.1028522  44.3446968  47.5624765  54.4198522  44.6136968  46.6544765
  54.5518522  43.5926968  48.0444765  52.6958522  44.6586968  49.3534765
  51.9548522  45.1696968  49.7904765  53.1518522  43.9266968  49.8534765
  53.0578522  49.4896968  49.2374765  53.8588522  50.2766968  49.7454765
  52.1398522  48.8796968  49.9544765  51.5118522  48.2586968  49.5214765
  52.1558522  48.9806968  51.3844765  53.1242322  49.3323434  51.7404036
  51.3736914  49.6528591  51.7373526  51.9018522  47.5986968  51.9364765
  51.3678522  46.7446968  51.2084765  52.2258522  47.3736968  53.2064765
  52.7318522  48.0526968  53.7054765  51.9198522  46.1196968  53.8774765
  50.9914419  45.6996876  53.4905066  53.0368522  45.1006968  53.6764765
  53.9713096  45.5032938  54.0673795  52.7890906  44.1802162  54.2050878
  53.1495314  44.8893399  52.6131182  51.7678522  46.3456968  55.3844765
  52.5368522  47.1316968  55.9494765  50.8088522  45.7196968  56.0674765
  50.2168522  45.0886968  55.6084765  50.6838522  45.8516968  57.5134765
  51.6495487  45.9979318  57.9973615  49.7848522  47.0726968  57.8244765
  50.2415569  47.9034191  57.2864974  48.3128522  46.9876968  57.4674765
  47.8553312  46.1574323  58.0054681  47.8167365  47.9175676  57.7455206
  48.2073571  46.8269291  56.3945715  49.9648522  47.2046968  59.2204765
  49.4508522  47.9666968  59.5124765  50.1308522  44.5566968  58.1374765
  49.7258522  43.6416968  57.4104765  50.1288522  44.4066968  59.4654765
  50.3118522  45.1976968  60.0184765  49.5998522  43.2126968  60.0924765
  48.9785379  42.6746210  59.3765560  50.6948522  42.2496968  60.6204765
  50.2519326  41.5507089  61.3299399  51.2898522  41.4876968  59.4734765
  51.7334046  42.1860381  58.7637721  52.0591891  40.8113626  59.8460245
  50.5099166  40.9112173  58.9760105  51.7148522  42.9646968  61.3034765
  51.6848522  43.8276968  60.8874765  48.7248522  43.5536968  61.2694765
  48.9328522  44.5216968  62.0094765  47.7268522  42.7156968  61.4374765
  47.6578522  41.9236968  60.8564765  46.8808522  42.8376968  62.5924765
  47.0412249  43.7846770  63.1078485  45.4078522  42.7666968  62.1384765
  44.7577134  42.8165038  63.0119397  45.0988522  43.9336968  61.2084765
  45.7483267  43.8843023  60.3344948  44.0577169  43.8796190  60.8903359
  45.2691818  44.8730797  61.7344510  45.1538522  41.4636968  61.4314765
  45.3618125  40.6355495  62.1089915  44.1122640  41.4193806  61.1133103
  45.8031457  41.3905191  60.5590294  47.2698522  41.6816968  63.5384765
  47.8808522  40.6806968  63.1424765  47.0118522  41.8496968  64.8374765
  46.7428522  42.7336968  65.1454765  47.1778522  40.7856968  65.8064765
  47.9694391  40.1053322  65.4924804  47.5628522  41.3936968  67.1654765
  48.5078906  41.9157678  67.0156648  46.7850278  42.1156081  67.4143403
  47.7128522  40.3786968  68.3224765  47.9843726  41.0260162  69.1563560
  46.7133257  39.9759551  68.4863211  48.7318522  39.2096968  68.2214765
  48.8068522  38.5096968  67.1854765  49.4258522  38.9836968  69.2334765
  45.8898522  39.9706968  65.9054765  45.8698522  38.8516968  66.4074765
  44.7738522  40.4606968  65.3814765  44.7838522  41.2866968  64.8624765
  43.5218522  39.7416968  65.4704765  43.7546764  38.6769918  65.4876628
  42.6758522  40.0746968  66.6924765  42.2772756  41.0666589  66.4797630
  41.8666741  39.3449310  66.6646791  43.3028522  40.0706968  68.0474765
  43.4267486  39.0562521  68.4264917  44.2685156  40.5762263  68.0414680
  42.3358522  40.8336968  68.9454765  41.4448844  40.2206411  69.0812634
  42.8213028  40.9867423  69.9093303  41.9308522  42.1406968  68.4094765
  41.0478522  42.2136968  67.9914765  42.6908522  43.2516968  68.4504765
  43.9208522  43.2726968  68.9964765  44.3108522  42.4416968  69.3934765
  44.4478522  44.1226968  69.0024765  42.1858522  44.3706968  67.9234765
  41.2728522  44.3656968  67.5174765  42.7228522  45.2136968  67.9344765
  42.6568522  40.1346968  64.3114765  42.5948522  41.2916968  63.8714765
  41.9098522  39.1386968  63.8834765  41.9708522  38.2516968  64.2914765
  40.9458522  39.3726968  62.8484765  41.3437521  40.0821740  62.1229305
  40.6238522  38.0796968  62.1334765  41.5181387  37.7845251  61.5846372
  40.3899338  37.3213888  62.8807055  39.4598522  38.2146968  61.1684765
  39.3298522  39.2616968  60.5334765  38.6688522  37.2716968  61.0624765
  39.6938522  39.9586968  63.4894765  38.6898522  39.3056968  63.7564765
  39.7978522  41.2536968  63.6914765  40.6178522  41.7266968  63.4234765
  38.7378522  42.0286968  64.2704765  37.7768303  41.5155311  64.3050744
  39.1978522  42.3036968  65.7054765  40.1477411  41.7805787  65.8157436
  39.3708522  43.7446968  66.0994765  38.4212014  44.2683925  65.9899065
  39.6987179  43.8012556  67.1374574  40.1182044  44.2103560  65.4570383
  38.1868522  41.6796968  66.4704765  38.5598522  41.3146968  67.2774765
  38.5938522  43.2536968  63.3834765  39.5838522  43.9096968  63.0194765
  37.3468522  43.5586968  63.0364765  36.6278522  42.9496968  63.3074765
  37.0338522  44.7496968  62.2794765  37.3570411  44.6385543  61.2444424
  35.5358522  44.9726968  62.2974765  35.0117523  44.0754993  61.9681511
  35.2012689  45.2411124  63.2995279  35.2368522  46.1086968  61.3454765
  35.8928960  46.9373722  61.6119430  35.5073810  45.7348314  60.3579857
  33.8168522  46.5826968  61.3274765  33.3928522  47.0676968  62.3724765
  33.1588522  46.4916968  60.2834765  37.7288522  46.0256968  62.7714765
  38.2468522  46.7746968  61.9534765  37.8408522  46.3326968  64.0654765
  37.4528522  45.7336968  64.7334765  38.4648522  47.5816968  64.4844765
  37.9712680  48.4155373  63.9852933  38.3558522  47.7866968  66.0144765
  37.3601112  47.4669552  66.3216642  39.1034559  47.1505233  66.4882614
  38.5808522  49.2526968  66.4444765  39.1290419  49.7366962  65.6361860
  37.5819654  49.6833567  66.5141635  39.3258522  49.4706968  67.7704765
  40.5238522  49.1766968  67.8314765  38.7278522  49.9526968  68.7434765
  39.9358522  47.6486968  64.0924765  40.3798522  48.6646968  63.5304765
  40.6438522  46.5376968  64.3304765  40.1798522  45.7166968  64.5764765
  42.0728522  46.4766968  64.1084765  42.5611771  47.3488792  64.5431439
  42.6238522  45.2496968  64.7554765  41.9419889  44.8918010  65.5268857
  42.7739196  44.4666868  64.0121897  43.9548522  45.6096968  65.3854765
  44.4330025  46.3340529  64.7260970  43.7203912  46.0853754  66.3377669
  44.8998522  44.4376968  65.6224765  44.4558522  43.2936968  65.7464765
  46.1038522  44.6846968  65.6724765  42.4068522  46.4606968  62.6124765
  43.3698522  47.0746968  62.1604765  41.6078522  45.8046968  61.7844765
  40.8838522  45.2656968  62.1674765  41.7758522  45.8146968  60.3414765
  42.7738935  45.5258837  60.0119316  40.7438522  44.8606968  59.7374765
  39.7783186  45.0094657  60.2209152  40.6158522  45.1446968  58.2614765
  41.5809499  44.9956802  57.7772438  39.8817724  44.4685880  57.8231793
  40.2922160  46.1753228  58.1159815  41.1368522  43.3956968  60.0394765
  42.1034732  43.2217591  59.5667289  41.2414851  43.3109517  61.1211279
  40.1008522  42.3236968  59.5264765  39.9960304  42.4075263  58.4447719
  40.4552113  41.3246494  59.7803132  39.1340410  42.4967205  59.9991695
  41.5888522  47.2446968  59.8154765  42.3828522  47.7396968  59.0094765
  40.5478522  47.9416968  60.2634765  39.9388522  47.5346968  60.9204765
  40.2878522  49.2676968  59.7794765  40.3417784  49.3093725  58.6916096
  38.8998522  49.6376968  60.2044765  38.8522102  49.6786060  61.2926657
  38.7655709  50.6399145  59.7975021  37.8038522  48.7316968  59.6854765
  37.7090053  47.8446747  60.3118124  36.5308522  49.5116968  59.7314765
  36.6247775  50.3986926  59.1049661  35.7117531  48.8932932  59.3643874
  36.3257370  49.8131179  60.7586928  37.9898522  48.3346968  58.2364765
  38.9349441  47.8036028  58.1231630  37.1698636  47.6857747  57.9288726
  37.9988617  49.2284629  57.6126176  41.3408522  50.2006968  60.3184765
  41.9088522  50.9206968  59.5194765  41.7338522  50.1346968  61.5854765
  41.3438522  49.4416968  62.1484765  42.7298522  51.0156968  62.1544765
  42.3970139  52.0478570  62.0451006  42.9618522  50.7316968  63.6394765
  42.0562123  51.0684623  64.1439610  43.0393661  49.6473379  63.7185803
  44.1888522  51.3826968  64.3004765  44.9942864  51.4599587  63.5701292
  43.8789677  52.3820815  64.6059333  44.7168522  50.6306968  65.5384765
  44.2038522  49.5836968  65.9574765  45.7928522  51.0976968  66.1704765
  46.0848522  50.6026968  66.9594765  46.2288522  51.9056968  65.8174765
  44.0378522  50.8126968  61.4474765  44.6538522  51.7736968  61.0094765
  44.4888522  49.5686968  61.3674765  43.9458522  48.8416968  61.7314765
  45.7708522  49.2466968  60.7634765  46.5464155  49.9145124  61.1384740
  46.1488522  47.8106968  61.1204765  45.3272203  47.1462378  60.8530545
  47.0417504  47.5257060  60.5640476  46.4238522  47.7006968  62.6074765
  45.6515189  48.2538713  63.1418920  46.3771796  46.6487004  62.8889501
  47.7858522  48.2596968  62.9674765  48.5330287  47.5471432  62.6180574
  47.9035896  49.2012169  62.4310278  47.9748522  48.5026968  64.4804765
  48.9637103  48.9393749  64.6203779  47.2146413  49.2180244  64.7942996
  47.8618522  47.2946968  65.2794765  46.9198522  46.8716968  65.1484765
  48.5898522  46.6156968  64.9784765  47.9968522  47.5326968  66.2824765
  45.7678522  49.4546968  59.2654765  46.8398522  49.7896968  58.7744765
  44.6598522  49.3496968  58.5364765  43.8208522  49.0676968  58.9544765
  44.6768522  49.6676968  57.1244765  45.5583956  49.2288866  56.6571156
  43.4308522  49.1576968  56.3944765  42.5603944  49.5941703  56.8842665
  43.4128522  49.5186968  54.9034765  44.2828246  49.0821515  54.4128892
  42.5040739  49.1281985  54.4455112  43.4388535  50.6025877  54.7912046
  43.4328522  47.7556968  56.5674765  43.3978522  47.5456968  57.5024765
  44.7438522  51.1926968  56.9514765  45.5968522  51.6726968  56.1914765
  43.8878522  51.9666968  57.6394765  43.2328522  51.5186968  58.2164765
  43.8748522  53.4206968  57.5984765  43.5792363  53.7661730  56.6078420
  42.8918522  53.9476968  58.6034765  41.9164286  53.5439706  58.3320855
  43.1908435  53.5523045  59.5742335  42.8098522  55.4576968  58.6774765
  43.7817841  55.8522912  58.9736935  42.5440493  55.8477429  57.6949721
  41.7648522  55.8806968  59.6874765  41.7096480  56.9692951  59.6852055
  40.8047209  55.4680795  59.3776470  42.0988522  55.3906968  61.0964765
  42.0643657  54.3017726  61.1304679  43.0941013  55.7312670  61.3821169
  41.1218522  55.9326968  62.0154765  41.1408522  56.9696968  61.9554765
  40.1738522  55.5886968  61.7594765  41.3458522  55.6366968  62.9864765
  45.2458522  53.9866968  57.9064765  45.7258522  54.8526968  57.1694765
  45.9148522  53.4726968  58.9264765  45.4728522  52.8046968  59.4944765
  47.2668522  53.9006968  59.2484765  47.2425733  54.9760655  59.4248052
  47.8608522  53.2306968  60.4524765  47.7456449  52.1628628  60.2665809
  48.9189280  53.4913238  60.4269957  47.2878522  53.5716968  61.8194765
  47.4091680  54.6404878  61.9957406  46.2270769  53.3210600  61.8257189
  47.9758522  52.8096968  62.9494765  47.7668522  53.1666968  64.0984765
  48.7978522  51.7666968  62.7654765  49.1778522  51.3716968  63.5764765
  48.9868522  51.4476968  61.8604765  48.2658522  53.5986968  58.1564765
  49.2798522  54.2746968  58.0344765  48.0478522  52.5616968  57.3984765
  47.2518522  52.0066968  57.5294765  48.9518522  52.2326968  56.3334765
  49.9788468  52.2566760  56.6979024  48.6578522  50.8426968  55.8044765
  48.8714930  50.2547931  56.6971277  47.5922857  50.7892685  55.5812874
  49.4438522  50.2916968  54.6394765  49.2671903  50.9372424  53.7791496
  50.9568522  50.2236968  54.9284765  51.1343517  49.5779147  55.7884522
  51.4756451  49.8205074  54.0587679  51.3316835  51.2245286  55.1428070
  48.7858522  48.9466968  54.3274765  47.7386298  49.1050164  54.0698731
  49.2988174  48.4766198  53.4884320  48.8505137  48.2985674  55.2014594
  48.6778522  53.2726968  55.2714765  49.5828522  53.9996968  54.8604765
  47.4228522  53.3726968  54.8604765  46.7578522  52.7846968  55.2604765
  47.0138522  54.3276968  53.8604765  47.4218254  54.0816059  52.8801213
  45.4988522  54.2636968  53.7854765  45.1472531  54.3592638  54.8127759
  45.1868361  55.1368765  53.2124990  44.9008522  52.9996968  53.1564765
  45.2433430  52.1258881  53.7107863  43.3758522  53.0656968  53.2024765
  43.0325678  53.9390545  52.6479488  42.9589388  52.1640814  52.7537296
  43.0460149  53.1411306  54.2386316  45.3568522  52.8846968  51.7104765
  46.4447306  52.8263734  51.6755709  44.9308383  51.9857079  51.2650190
  45.0223347  53.7594550  51.1528071  47.5258522  55.7456968  54.1764765
  48.1998522  56.3516968  53.3524765  47.3708522  56.2486968  55.4014765
  46.8908522  55.7106968  56.0534765  47.8738522  57.5516968  55.8014765
  47.3771058  58.3315015  55.2242012  47.6118522  57.7936968  57.2594765
  47.8356572  56.8711171  57.7950672  48.2889471  58.5801443  57.5928573
  46.1838522  58.2056968  57.5404765  46.0677852  59.2256017  57.1738387
  45.5323274  57.5402122  56.9741331  45.8068522  58.1506968  59.0154765
  46.6248522  57.8776968  59.9084765  44.6398522  58.3876968  59.2644765
  49.3568522  57.6986968  55.6024765  49.8458522  58.7666968  55.2464765
  50.0858522  56.6286968  55.8144765  49.6548522  55.7586968  55.9564765
  51.5168522  56.7246968  55.8444765  51.8151138  57.5853587  56.4431418
  52.1248522  55.4756968  56.4544765  51.5833346  55.2931083  57.3826571
  51.9270695  54.6647667  55.7534954  53.6028522  55.5426968  56.7404765
  53.9537555  54.5688456  57.0819169  54.1384025  55.8238294  55.8336951
  53.8558522  56.5716968  57.8124765  53.4941280  57.5502609  57.4967758
  53.3634276  56.2853546  58.7417910  55.3608522  56.6346968  58.0344765
  55.6289199  55.9862935  58.8686308  55.8747173  56.2985018  57.1339129
  55.7578522  58.0056968  58.3374765  55.4798522  58.6276968  57.5514765
  55.2868522  58.3206968  59.2094765  56.7898522  58.0456968  58.4634765
  51.9158522  56.8476968  54.4034765  52.7458522  57.6996968  54.1154765
  51.3088522  56.0656968  53.5004765  50.6048522  55.4546968  53.8154765
  51.6578522  56.1076968  52.0854765  52.7246610  55.9161880  51.9699664
  50.8488522  54.9876968  51.3664765  49.7853601  55.1359193  51.5538666
  51.1098522  55.0366968  49.8764765  52.1731431  54.8880788  49.6882588
  50.5403383  54.2502343  49.3812681  50.8043153  56.0071171  49.4852851
  51.2718522  53.6276968  51.8604765  52.3448517  53.5331629  51.6936346
  51.0657673  53.5844000  52.9299408  50.5518522  52.4956968  51.1624765
  50.7578483  52.5380630  50.0929576  50.8992578  51.5426664  51.5614021
  49.4787630  52.5893016  51.3292621  51.3898522  57.5076968  51.4874765
  52.2178522  58.1306968  50.8184765  50.2258522  58.0586968  51.7864765
  49.6168522  57.5186968  52.3384765  49.7818522  59.3556968  51.3334765
  49.7889161  59.4396942  50.2467411  48.3608522  59.5356968  51.8464765
  48.3414201  59.3537615  52.9210100  47.8788522  60.9556968  51.5624765
  47.8975664  61.1382306  50.4880316  46.8608175  61.0753416  51.9331396
  48.5334495  61.6690944  52.0631414  47.4498522  58.5076968  51.1724765
  47.2081157  58.8506984  50.1664874  47.9716761  57.5524801  51.1145063
  46.1458522  58.3336968  51.9844765  45.6232086  59.2884628  52.0424882
  45.5068773  57.5995282  51.4937558  46.3867695  57.9902464  52.9905086
  50.7018522  60.4426968  51.8324765  50.9898522  61.4166968  51.1414765
  51.1528522  60.2886968  53.0564765  50.8678522  59.5066968  53.5774765
  52.0338522  61.2386968  53.6964765  51.6180827  62.2453862  53.6539174
  52.1848522  60.8396968  55.1454765  51.1937964  60.9416767  55.5876390
  52.4718302  59.7881889  55.1368287  53.1738522  61.6196968  55.9534765
  54.1579502  61.5090212  55.4980612  52.8830916  62.6700902  55.9382767
  53.2228522  61.1316968  57.3824765  53.8108522  60.0766968  57.6534765
  52.6608522  61.8266968  58.2234765  53.3508522  61.1836968  52.9614765
  53.7578522  62.2046968  52.3954765  53.9728522  59.9966968  52.8874765
  53.5768522  59.2246968  53.3394765  55.2398522  59.8296968  52.2034765
  55.9861209  60.4222814  52.7326511  55.7228522  58.4006968  52.1284765
  55.0301302  57.9204176  51.4374140  56.7059653  58.4749737  51.6636413
  55.8238522  57.5826968  53.3854765  54.8418646  57.1667322  53.6108085
  56.5234263  56.7718712  53.1823576  56.3118522  58.3826968  54.5634765
  57.4838522  58.7566968  54.5864765  55.4998522  58.6436968  55.4474765
  55.1628522  60.2646968  50.7664765  56.0448522  60.9506968  50.2324765
  54.0518522  59.9536968  50.1344765  53.2598522  59.6576968  50.6204765
  54.0558522  60.1646968  48.7174765  55.0774724  60.3048160  48.3642655
  53.4508522  58.9466968  48.0004765  52.4767666  58.6759217  48.4078305
  53.3450543  59.2013399  46.9459321  54.3808522  57.7436968  48.1204765
  55.2098522  57.4516968  47.2554765  54.3288522  57.0136968  49.2224765
  54.8498522  56.1846968  49.2724765  53.7218522  57.3156968  49.9264765
  53.3498522  61.4096968  48.3214765  53.3188522  61.7086968  47.1334765
  52.8758522  62.2146968  49.2904765  52.9688522  61.9346968  50.2274765
  52.1248522  63.4436968  49.0214765  51.7689158  63.8606868  49.9635634
  52.9998522  64.5016968  48.3124765  53.1573301  64.3256602  47.2483754
  52.5363475  65.4780327  48.4540092  54.3698522  64.5776968  48.9454765
  55.4818522  64.0496968  48.4504765  55.5568522  63.4696968  47.6574765
  56.4358522  64.2626968  49.3304765  57.4666498  64.0144541  49.0776308
  55.9328522  64.9136968  50.3534765  56.4098522  65.0876968  51.1934765
  54.6598522  65.1386968  50.1684765  54.1165004  65.7903435  50.8527473
  50.9438522  63.1116968  48.1214765  50.6378522  63.8856968  47.2194765
  50.2638522  61.9796968  48.2984765  50.4158522  61.4386968  49.0974765
  49.2088522  61.5846968  47.3714765  49.5062166  61.8329086  46.3526219
  49.0078522  59.9946968  47.4744765  48.6956401  59.7805829  48.4966208
  47.9898522  59.4226968  46.5044765  48.3016443  59.6360266  45.4820403
  47.9196508  58.3440497  46.6448022  47.0162596  59.8767148  46.6890993
  50.2668522  59.3916968  47.1654765  50.5238522  59.6866968  46.2884765
  47.9118522  62.3626968  47.6604765  47.5268522  62.5736968  48.8144765
  47.2548522  62.8456968  46.6074765  47.6578522  62.7706968  45.7184765
  45.9608522  63.4886968  46.7294765  45.7375403  63.6377849  47.7858872
  45.9228522  64.8286968  46.0344765  45.9730012  64.6145938  44.9668884
  44.9516513  65.2626674  46.2722541  47.0258522  65.8156968  46.4074765
  47.9661656  65.3007031  46.2107706  46.9208060  66.6545857  45.7194847
  47.0198522  66.3306968  47.8394765  46.0364370  66.7438314  48.0637827
  47.2278201  65.5014121  48.5155946  48.0888522  67.4226968  48.0234765
  47.9471625  68.1610607  47.2342723  47.9311367  67.8938219  48.9936652
  49.4448522  66.8936968  47.9554765  49.5928522  66.4436968  47.0294765
  50.1268522  67.6686968  48.0814765  49.5758522  66.1866968  48.7074765
  44.9838522  62.5716968  46.0264765  45.3438522  61.9826968  45.0084765
  43.7318522  62.4186968  46.4524765  43.1738522  63.0696968  47.6114765
  43.6099841  64.0575629  47.7598330  43.3182861  62.4705868  48.5105343
  41.7268522  63.1326968  47.1884765  41.5741136  63.8839970  46.4136747
  41.0770119  63.3487472  48.0364924  41.4828522  61.7546968  46.6674765
  40.6290825  61.6290282  46.0016059  41.3874033  61.0728021  47.5124669
  42.7628522  61.4716968  45.9194765  43.1131608  60.4871397  46.2293627
  42.5478522  61.4806968  44.4354765  42.2848522  60.4446968  43.8454765
  42.7108522  62.6226968  43.7764765  43.0608522  63.3896968  44.2684765
  42.4658522  62.7396968  42.3434765  41.6622461  62.0780367  42.0201773
  42.0468522  64.1786968  42.0794765  41.7574863  64.1851448  41.0286078
  41.1619159  64.3184265  42.7003334  43.0508522  65.3286968  42.3454765
  43.9960549  64.9670276  41.9406455  42.6936585  66.1635431  41.7425309
  43.2588522  65.7936968  43.7864765  42.5258522  65.3956968  44.6924765
  44.1748522  66.5796968  44.0024765  43.6658522  62.3126968  41.4924765
  43.6148522  62.2156968  40.2674765  44.7948522  62.0596968  42.1494765
  44.8468522  62.2206968  43.1124765  45.9598522  61.4946968  41.4894765
  46.0502989  61.9186226  40.4893737  47.2538522  61.8016968  42.2744765
  47.1286807  61.2976093  43.2327703  48.0457394  61.3120583  41.7076706
  47.6298522  63.2696968  42.5144765  47.1748522  64.1246968  41.7464765
  48.3728522  63.5416968  43.4704765  45.8308522  59.9646968  41.4164765
  46.5648522  59.3386968  40.6484765  44.9408522  59.3296968  42.2164765
  44.2378522  59.8526968  42.6524765  44.8558522  57.8826968  42.3504765
  45.8530310  57.4609799  42.2244271  44.3358522  57.5126968  43.7664765
  43.3423405  57.9455742  43.8833133  44.2618522  55.9966968  43.9874765
  45.2551417  55.5631432  43.8712510  43.8924595  55.7931225  44.9925670
  43.5852924  55.5549463  43.2558857  45.3168522  58.0736968  44.7934765
  45.3758564  59.1568254  44.6864579  44.9730610  57.8265459  45.7978786
  46.3028818  57.6387355  44.6302122  43.9628522  57.2906968  41.2874765
  42.8078522  57.6776968  41.0884765  44.6038522  56.3586968  40.5834765
  45.5398522  56.1766968  40.7954765  43.9598522  55.6286968  39.4934765
  43.3840405  56.2964500  38.8526600  45.0128522  54.9056968  38.6314765
  45.5928042  54.2370544  39.2676151  44.3458522  54.1076968  37.5404765
  43.7660448  54.7757694  36.9036065  45.1050148  53.6040925  36.9420157
  43.6834707  53.3653375  37.9857348  45.9668522  55.9316968  38.0394765
  46.4636177  56.4735414  38.8442935  46.7136299  55.4243104  37.4287541
  45.4079767  56.6335841  37.4205151  43.0218522  54.6186968  40.1034765
  41.8418522  54.5146968  39.7624765  43.5648522  53.8296968  41.0184765
  44.4918522  53.9756968  41.3084765  42.8078522  52.7796968  41.6714765
  41.8961783  53.1948513  42.1011234  42.4208522  51.6836968  40.6604765
  41.9890126  50.8373680  41.1946500  41.6875193  52.0829097  39.9597969
  43.6578522  51.2236968  39.8944765  44.1191569  52.0879330  39.4165701
  44.3472292  50.8029084  40.6264591  43.3828522  50.1956968  38.8544765
  43.9698522  49.1186968  38.9014765  42.4818522  50.4806968  37.9184765
  42.3938522  49.8036968  37.2124765  41.9958522  51.3256968  37.9484765
  43.7088522  52.1986968  42.7344765  44.9208522  52.4816968  42.7344765
  43.1168522  51.3666968  43.5964765  42.1588522  51.1656968  43.5164765
  43.8388522  50.7036968  44.6594765  44.9159530  50.7675100  44.5049416
  43.4978522  51.3986968  45.9374765  43.4770003  52.4713204  45.7447514
  42.5076963  51.0668869  46.2498760  44.4918522  51.1046968  47.0274765
  44.5182717  50.0261829  47.1830740  45.4721613  51.4476529  46.6966031
  44.0728522  51.9176968  48.5814765  43.4848522  53.4656968  47.9644765
  42.6311791  53.2953279  47.3084920  43.1809177  54.0980804  48.7986320
  44.2792559  53.9598794  47.4051844  43.4468522  49.2226968  44.7374765
  42.2838522  48.8786968  44.4774765  44.3748522  48.3236968  45.0784765
  45.2988522  48.6146968  45.1994765  44.0698522  46.9236968  45.2874765
  42.9962753  46.7511362  45.2116177  44.7658522  46.1046968  44.2284765
  45.7673203  46.5349554  44.2222655  44.8151327  45.0760062  44.5855018
  44.1988522  46.1246968  42.8224765  43.9362563  47.1450850  42.5432773
  45.2638522  45.5866968  41.8534765  45.5266388  44.5661134  42.1317778
  44.8690594  45.5954985  40.8375228  46.1521622  46.2164214  41.9030007
  42.8998522  45.3186968  42.7684765  42.1725697  45.7543883  43.4535548
  42.5007364  45.3393350  41.7543848  43.0993153  44.2872248  43.0589573
  44.5358522  46.5166968  46.6794765  45.6808522  46.7896968  47.0474765
  43.6938522  45.8896968  47.4974765  42.8118522  45.6176968  47.1644765
  44.0708522  45.5226968  48.8554765  45.1108676  45.8024347  49.0234467
  43.1898522  46.2316968  49.9154765  42.1692291  46.1700728  49.5378123
  43.3062634  45.5512967  50.7590428  43.4838522  47.6876968  50.3794765
  43.9573529  48.2444171  49.5707982  42.1868522  48.3506968  50.7514765
  41.7129580  47.7947687  51.5604678  42.3810495  49.3722283  51.0783732
  41.5248452  48.3664721  49.8856831  44.3398522  47.7306968  51.6404765
  45.2933818  47.2381804  51.4499285  44.5176058  48.7679545  51.9243802
  43.8213902  47.2167390  52.4498859  43.9338522  44.0246968  49.0364765
  42.9018522  43.4366968  48.7094765  44.9558522  43.3396968  49.5184765
  45.7898522  43.7906968  49.7654765  44.8388522  41.9196968  49.7324765
  43.8709681  41.5549987  49.3885362  45.9068522  41.2366968  48.9564765
  45.8167332  40.1650810  49.1342893  45.7380960  41.4446066  47.8998806
  47.2058522  41.6676968  49.3204765  47.7928522  41.3976968  48.6004765
  44.9508522  41.5696968  51.2064765  45.6618522  42.1996968  52.0124765
  44.2098522  40.5456968  51.5744765  43.6638522  40.0576968  50.9214765
  44.3048522  40.0426968  52.9194765  45.0131410  40.5788643  53.5511018
  42.9318522  40.1016968  53.5704765  42.2134168  39.5612462  52.9541456
  42.9779537  39.6448101  54.5590257  42.6186284  41.1413844  53.6655537
  44.7708522  38.5986968  52.8264765  44.3658522  37.8626968  51.9184765
  45.5988522  38.1286968  53.7414765  45.9248522  38.7496968  54.4184765
  45.9328522  36.7106968  53.7494765  46.3044311  36.3939695  52.7749447
  47.0298522  36.4516968  54.8034765  46.8745642  35.4781799  55.2685043
  48.3698522  36.4726968  54.1204765  48.5260636  37.4461263  53.6555759
  49.1551211  36.2908457  54.8542217  48.4007857  35.6963581  53.3559885
  47.0128522  37.4396968  55.8364765  47.1368522  38.2906968  55.3884765
  44.6748522  35.8646968  54.0184765  43.6328522  36.4076968  54.4294765
  44.6048522  34.5416968  53.8094765  45.6798522  33.7206968  53.2654765
  46.5679397  33.8217697  53.8893236  45.9101589  34.0460723  52.2509871
  45.0958522  32.3206968  53.3054765  45.1958078  31.8606177  54.2885508
  45.5393672  31.6686864  52.5529618  43.6618522  32.6136968  52.9814765
  42.9585932  31.8033633  53.1735322  43.5945093  32.9122273  51.9353197
  43.3408522  33.8086968  53.8884765  42.6122467  34.4213446  53.3575387
  42.8068522  33.4826968  55.3004765  42.0828522  32.5066968  55.5294765
  43.0678522  34.3536968  56.2654765  43.4528522  35.2146968  56.0024765
  42.7738522  34.1806968  57.6904765  42.0625508  33.3713541  57.8551396
  44.0868522  33.8236968  58.3804765  43.8445430  33.6960172  59.4355041
  44.4016796  32.8676313  57.9622390  45.2208522  34.8406968  58.2374765
  45.1058522  35.7876968  57.4614765  46.2418522  34.6946968  58.9014765
  42.1528522  35.4536968  58.3064765  42.0548522  35.6466968  59.5244765
  41.7488522  36.4026968  57.4624765  41.8268522  36.2806968  56.4914765
  41.1338522  37.6276968  57.9234765  41.0802800  37.6327884  59.0121469
  41.9528522  38.8166968  57.4744765  42.0743742  38.6927062  56.3983919
  41.3863780  39.7264899  57.6731810  43.3108522  38.9176968  58.1254765
  43.8467834  37.9737440  58.0263209  44.0708522  39.9916968  57.4404765
  43.5357362  40.9361137  57.5396044  45.0578971  40.0846741  57.8934647
  44.1781861  39.7446302  56.3842862  43.1878522  39.1976968  59.6064765
  42.6326097  38.3906489  60.0844711  44.1822118  39.2650253  60.0478575
  42.6599524  40.1395218  59.7560972  39.7838522  37.5986968  57.2684765
  39.6518522  37.2916968  56.0724765  38.7378522  37.7566968  58.0864765
  38.8898522  37.8976968  59.0274765  37.3758522  37.6206968  57.5844765
  37.3686046  37.7249543  56.4994986  36.7958522  36.2116968  57.9564765
  36.8577908  36.1501106  59.0429708  35.7757448  35.9964385  57.6384439
  37.6718522  35.0886968  57.4044765  37.7108522  34.6136968  56.1604765
  37.0838522  34.8036968  55.4374765  38.6948522  33.7556968  56.0564765
  38.9415710  33.2918705  55.1014403  39.2718522  33.6716968  57.2224765
  40.0098522  33.0456968  57.4024765  38.6818522  34.4646968  58.0944765
  39.0776844  34.5524872  59.1062625  36.4118522  38.6706968  58.0624765
  35.3668522  38.8546968  57.4524765  36.7448522  39.3756968  59.1314765
  37.6138522  39.2176968  59.5154765  35.8688522  40.3456968  59.7824765
  35.0653722  39.7734585  60.2462246  36.6318522  41.0626968  60.8604765
  37.4343224  41.6474411  60.4107924  35.9586513  41.7269719  61.4023615
  37.0567926  40.3344745  61.5512856  35.2648522  41.3766968  58.8874765
  34.0398522  41.4996968  58.8824765  36.1158522  42.0276968  58.0734765
  37.0538522  41.7606968  57.9854765  35.6748522  43.0926968  57.1864765
  34.7039397  42.9341650  56.7171198  35.6118522  44.4276968  58.0444765
  35.0855874  44.2182679  58.9757574  37.0058522  44.9476968  58.3564765
  37.5326050  45.1578034  57.4256233  36.9298523  45.8621820  58.9447292
  37.5560433  44.1964814  58.9231041  34.7598522  45.4566968  57.3154765
  33.7522843  45.0639035  57.1790130  34.7152498  46.3739178  57.9026867
  35.2009431  45.6702951  56.3418670  36.6648522  43.1706968  56.0144765
  37.7768522  42.6306968  56.0924765  36.2638522  43.7986968  54.9014765
  35.3618522  44.1726968  54.8754765  37.1668522  44.0416968  53.7784765
  37.7412920  43.1350462  53.5884687  36.4358522  44.4196968  52.5204765
  35.7909387  45.2597864  52.7782267  37.1401586  44.7268329  51.7473530
  35.5438522  43.3626968  51.8994765  36.1048522  42.2786968  51.2474765
  37.1867174  42.1492998  51.2170765  35.2728522  41.3466968  50.6254765
  35.7269030  40.4970540  50.1155298  33.8938522  41.4856968  50.6474765
  33.2512113  40.7558860  50.1550449  33.3338522  42.5696968  51.3064765
  32.2505286  42.6874303  51.3319516  34.1548522  43.5106968  51.9374765
  33.7109431  44.3589608  52.4585261  38.0348522  45.2226968  54.1534765
  37.4878522  46.2206968  54.6464765  39.3548522  45.2026968  53.9334765
  40.0968522  44.0636968  53.3844765  40.0231535  44.0825858  52.2971348
  39.6592086  43.1394644  53.7617848  41.5268522  44.2756968  53.8794765
  42.2627351  43.8147898  53.2205834  41.6683252  43.9071592  54.8954818
  41.6148522  45.7866968  53.8354765  41.7972325  46.1151804  52.8122781
  42.3992027  46.1736193  54.4860031  40.2588522  46.2866968  54.3044765
  40.2647035  46.3724301  55.3910830  39.8258522  47.6226968  53.6894765
  39.9088522  48.6586968  54.3354765  39.2328522  47.6256968  52.4774765
  39.1068522  46.7476968  52.0614765  38.8018522  48.7846968  51.7114765
  39.7154110  49.3433159  51.5078733  38.2538522  48.2616968  50.4034765
  37.3338599  47.7076813  50.5899731  38.0449051  49.0978763  49.7362095
  38.9870507  47.6018459  49.9396704  37.7868522  49.7416968  52.3224765
  37.4098522  50.7786968  51.7664765  37.2548522  49.3526968  53.4604765
  37.5238522  48.4866968  53.8314765  36.2868522  50.1106968  54.2114765
  35.5192469  50.5322787  53.5625158  35.6268522  49.1506968  55.1824765
  35.9654479  48.1598682  54.8796382  36.0479405  49.3957023  56.1575441
  34.1148522  49.1626968  55.2684765  33.6905200  50.1348166  55.0174264
  33.6555888  48.3946911  54.6461049  33.8458522  48.8556968  56.7324765
  34.3675212  47.9269831  56.9636720  34.2798008  49.6697951  57.3130210
  32.3708522  48.7106968  57.0854765  31.8288340  49.5873883  56.7308940
  31.9655090  47.8170602  56.6109137  32.2248522  48.6016968  58.5274765
  32.6238522  49.4456968  58.9854765  31.2178522  48.5126968  58.7704765
  32.7368522  47.7566968  58.8484765  37.0998522  51.1926968  54.9274765
  36.6228522  52.3006968  55.1814765  38.3688522  50.9226968  55.2454765
  38.7178522  50.0156968  55.1194765  39.2448522  51.9226968  55.8264765
  38.7955755  52.2606914  56.7602908  40.5858522  51.3066968  56.1324765
  41.0522323  50.9715737  55.2060413  41.2251416  52.0470789  56.6133545
  40.4514272  50.4552880  56.7996588  39.4808522  53.1416968  54.9284765
  39.8248522  54.2176968  55.4134765  39.2898522  53.0306968  53.6124765
  38.9988522  52.1696968  53.2544765  39.4648522  54.1406968  52.6924765
  40.4438417  54.5738636  52.8975259  39.4478522  53.6196968  51.2184765
  38.4462193  53.2743459  50.9624230  39.8448522  54.7476968  50.2904765
  40.8466310  55.0932896  50.5456352  39.8352692  54.3917747  49.2602686
  39.1389455  55.5714658  50.3963161  40.4608522  52.5406968  50.9824765
  40.2531786  51.6965298  51.6400141  40.4084946  52.2132695  49.9441366
  41.4586850  52.9264211  51.1913960  38.3298522  55.1596968  52.9074765
  38.4868522  56.3676968  52.7234765  37.1728522  54.6866968  53.3534765
  37.1088522  53.7346968  53.5794765  35.9778522  55.4866968  53.5744765
  35.7810211  56.1878271  52.7634445  34.8358522  54.4506968  53.6184765
  34.7366151  54.1540184  52.5743342  35.2732333  53.6310517  54.1885465
  33.4718522  54.7826968  54.1794765  33.3805060  55.8481729  54.3904675
  32.6792200  54.4789897  53.4956649  33.3508522  53.9976968  55.4754765
  33.2154775  52.9418614  55.2409891  34.2665289  54.1266894  56.0525351
  32.2238522  54.4446968  56.2824765  31.3538522  54.0116968  56.1594765
  32.3278522  55.4276968  57.1864765  33.4738522  56.0786968  57.4154765
  34.2998522  55.8456968  56.9004765  33.5018522  56.8086968  58.0964765
  31.2538522  55.7526968  57.8954765  30.3908522  55.2716968  57.7434765
  31.3038522  56.4876968  58.5714765  36.0748522  56.3816968  54.8084765
  35.2168522  57.2306968  55.1014765  37.1448522  56.1596968  55.5684765
  37.7598522  55.4346968  55.3384765  37.5028522  56.9616968  56.7214765
  36.6366532  57.5125677  57.0880003  37.9938522  56.0536968  57.8164765
  38.7290269  55.3611410  57.4066179  38.4574713  56.6532690  58.5998477
  36.8408522  55.2766968  58.3954765  36.0222328  55.9669978  58.5990634
  36.5207755  54.5421836  57.6564633  37.2318522  54.5686968  59.6724765
  37.7468522  55.2196968  60.5964765  37.0078522  53.3596968  59.7294765
  38.5888522  57.9776968  56.3774765  39.2828522  58.5226968  57.2404765
  38.7728522  58.2476968  55.0914765  38.2448522  57.7946968  54.3974765
  39.7318522  59.2266968  54.6414765  40.2671867  59.6400824  55.4962446
  40.7548522  58.5786968  53.6854765  40.1830347  58.3478308  52.7866857
  41.4757840  59.3658329  53.4646278  41.5008522  57.3176968  54.1564765
  40.7892747  56.5106811  54.3310731  42.4758522  56.9036968  53.0884765
  43.1880833  57.7100827  52.9136411  43.0110047  56.0104927  53.4108103
  41.9359908  56.6900906  52.1659677  42.2508522  57.5626968  55.4354765
  41.5509104  57.8593948  56.2165982  42.7648064  56.6498160  55.7364765
  42.9816029  58.3568361  55.2823581  38.8888522  60.2706968  53.9154765
  38.3128522  60.0016968  52.8564765  38.7838522  61.4866968  54.4534765
  39.1738522  61.6856968  55.3284765  38.0458522  62.5396968  53.7854765
  37.0050529  62.2396590  53.6637666  38.0888522  63.8046968  54.5874765
  39.1080669  64.1533649  54.7540033  37.5023911  64.6024716  54.1317148
  37.5098522  63.4416968  55.8194765  36.6378522  63.8386968  55.9744765
  38.6338522  62.8106968  52.4324765  39.8458522  62.7426968  52.1994765
  37.6988522  63.0096968  51.5294765  36.7618522  62.9176968  51.7744765
  38.0488522  63.2506968  50.1514765  37.2669193  63.8595559  49.6976366
  38.9933261  63.7941588  50.1246910  38.1968522  61.9596968  49.3554765
  38.1808522  62.0486968  48.1184765  38.2768522  60.7526968  49.9394765
  38.1718522  60.6286968  50.9094765  38.5688522  59.5836968  49.1264765
  39.0377062  59.8643892  48.1833503  39.5338522  58.7176968  49.9074765
  39.2141781  58.6818196  50.9489276  39.5327380  57.7097063  49.4926824
  40.9848522  59.1856968  49.9124765  41.3658522  60.3766968  50.4704765
  40.6427234  61.0182086  50.9741104  42.6588522  60.4596968  50.2904765
  43.2198522  61.2266968  50.5514765  43.1058522  59.3736968  49.6454765
  44.4038522  59.0426968  49.2544765  45.1761731  59.7741307  49.4924336
  44.6488522  57.8316968  48.5984765  45.6563662  57.5531055  48.2896036
  43.5978522  56.9626968  48.3314765  43.7592555  56.0116705  47.8239359
  42.2968522  57.2896968  48.7104765  41.5127378  56.5699115  48.4755842
  42.0488522  58.4996968  49.3734765  37.3668522  58.7866968  48.6604765
  37.5188522  57.6846968  48.1524765  36.1618522  59.3716968  48.6834765
  36.0988522  60.2826968  49.0174765  34.9438522  58.6906968  48.2434765
  34.8221677  57.7720093  48.8173279  33.7008522  59.5586968  48.4414765
  34.0483555  60.5546699  48.7160274  33.1885716  59.6052762  47.4804879
  32.7418522  59.0476968  49.5014765  31.7311589  59.3282442  49.2050089
  32.8178008  57.9613618  49.5484887  33.0188522  59.6176968  50.8934765
  33.7248522  59.0376968  51.7214765  32.4568522  60.7816968  51.2014765
  32.6308522  61.1516968  52.0834765  31.8648522  61.2016968  50.5434765
  34.8738522  58.2386968  46.7764765  33.8888522  57.6256968  46.3774765
  35.7958522  58.5726968  45.8884765  36.6078522  59.0316968  46.1744765
  35.6458522  58.2066968  44.4934765  34.7748020  57.5682224  44.3460958
  35.4508522  59.4846968  43.6974765  36.1977749  60.2261690  43.9810689
  35.5631981  59.2423527  42.6407136  34.0568522  60.0486968  43.9434765
  32.9688522  59.3366968  43.4274765  33.1428694  58.4297089  42.8485202
  31.6738522  59.7796968  43.6494765  30.8134868  59.2293120  43.2687537
  31.4848522  60.9366968  44.3854765  30.1938522  61.3586968  44.5734765
  29.6078522  60.8046968  44.0424765  32.5518522  61.6626968  44.9054765
  32.3770494  62.5715056  45.4813332  33.8568522  61.2166968  44.6834765
  34.7004007  61.7779419  45.0853844  36.8038522  57.3866968  43.9594765
  36.7958522  57.0076968  42.7864765  37.7598522  57.0736968  44.8554765
  37.6088522  57.2956968  45.7984765  38.9008522  56.2356968  44.5214765
  39.3712973  56.5069469  43.5763818  39.9368522  56.3876968  45.6474765
  39.4726806  56.1053084  46.5924108  41.1588522  55.4936968  45.3904765
  41.6238598  55.7758154  44.4458718  41.8777101  55.6184573  46.2002781
  40.8435287  54.4514003  45.3426138  40.3198522  57.8656968  45.7214765
  39.4326690  58.4611108  45.9370921  41.0557753  58.0117160  46.5121694
  40.7446033  58.1796768  44.7680070  38.4418522  54.7636968  44.3524765
  37.7878522  54.2296968  45.2514765  38.6778522  54.0756968  43.2324765
  39.1678522  54.6526968  41.9934765  40.2349034  54.4706015  41.8656356
  38.9751758  55.7247187  41.9517171  38.3308522  53.8826968  41.0154765
  38.7390670  53.9528515  40.0072413  37.3002837  54.2377034  41.0151610
  38.4138522  52.4876968  41.5414765  39.4044359  52.0889398  41.3227622
  37.6553643  51.7907898  41.1849425  38.2648522  52.6936968  43.0014765
  37.2280582  52.5672647  43.3131997  39.1458522  51.7636968  43.7984765
  40.3688522  51.9886968  43.8664765  38.5358522  50.7126968  44.3554765
  37.5928522  50.5206968  44.1664765  39.2168522  49.7726968  45.2364765
  40.2732178  49.7354237  44.9703907  39.0958522  50.1086968  46.7694765
  39.3762489  49.2122070  47.3224531  39.9758522  51.2746968  47.2114765
  39.6957164  52.1717177  46.6592280  39.8402496  51.4486510  48.2789278
  41.0209721  51.0376493  47.0123918  37.6228522  50.4266968  47.0394765
  37.0111209  49.5613490  46.7844077  37.4898794  50.6667694  48.0943618
  37.3173088  51.2787049  46.4321658  38.5678522  48.4076968  45.0684765
  37.3688522  48.3136968  44.7844765  39.3388522  47.3416968  45.2304765
  40.3138522  47.4506968  45.3194765  38.8068522  46.0136968  45.2644765
  37.8291517  46.0907178  45.7401535  38.6158522  45.5436968  43.8424765
  38.8916635  46.4491253  43.3018957  39.2698522  44.3386968  43.1804765
  38.9941076  43.4327753  43.7202642  38.9310487  44.2627241  42.1472585
  40.3532866  44.4566662  43.1992881  37.2658522  45.2416968  44.1134765
  36.7668522  46.0716968  44.0724765  39.8198522  45.2626968  46.0544765
  40.9748522  45.6916968  46.2154765  39.2578522  44.2546968  46.7224765
  38.3888522  43.9166968  46.4294765  40.0778522  43.4456968  47.6004765
  41.0498782  43.9178270  47.7431574  39.3958522  43.2986968  48.9734765
  38.4314483  42.7958420  48.9016335  40.0261106  42.7738287  49.6913817
  39.0598522  44.9326968  49.6974765  38.5002366  44.4772923  50.8147658
  40.3078522  42.1036968  46.9334765  39.7488522  41.8036968  45.8674765
  41.1808522  41.2876968  47.5404765  41.6578522  41.5876968  48.3474765
  41.5798522  40.0206968  46.9614765  40.7065570  39.4763942  46.6020473
  42.5338522  40.2796968  45.7594765  42.9974030  39.3227404  45.5197800
  41.9051745  40.5968282  44.9274356  43.6228522  41.3266968  46.0034765
  43.1692228  42.2127713  46.4475408  44.3625949  40.9150101  46.6900600
  44.4398522  41.7886968  44.4554765  46.0868522  41.9306968  45.0954765
  46.3983062  40.9736962  45.5140997  46.7664716  42.2134638  44.2915729
  46.1099434  42.6923709  45.8748484  42.2538522  39.1496968  47.9854765
  42.8018522  39.6416968  48.9494765  42.2298522  37.8406968  47.7904765
  41.8308522  37.4976968  46.9654765  42.8858522  36.9076968  48.6714765
  42.8264918  37.2585562  49.7017547  42.2058522  35.5476968  48.5804765
  41.1361540  35.7521793  48.6255523  42.4597610  35.1593884  47.5941464
  42.5758522  34.5016968  49.6564765  43.3820028  34.8602034  50.2965507
  41.6908201  34.3071557  50.2622603  43.0168522  33.1936968  49.0024765
  42.2618522  32.5376968  48.2724765  44.2488522  32.7356968  49.1704765
  44.4828522  31.8886968  48.7464765  44.8698522  33.2836968  49.6944765
  44.3238522  36.8056968  48.2374765  44.6268522  36.5466968  47.0684765
  45.2138522  37.1066968  49.1654765  44.9088522  37.3576968  50.0634765
  46.6308522  36.9246968  48.9024765  46.8960054  37.4892308  48.0085557
  47.4968522  37.3926968  50.0414765  47.4274879  38.4801935  50.0667494
  47.0691312  36.9805263  50.9554077  48.9598522  36.9796968  49.9344765
  49.4366778  37.3469666  50.8432400  48.9920750  35.8902372  49.9226949
  49.6958522  37.5196968  48.7244765  49.6058522  36.9516968  47.6464765
  50.3868522  38.5106968  48.8644765  46.7708522  35.4256968  48.8124765
  46.0178522  34.7376968  49.4994765  47.6588522  34.8766968  47.9884765
  48.2368522  35.4476968  47.4564765  47.7928522  33.4446968  47.9054765
  46.8276415  32.9749852  47.7161659  48.7288522  33.1166968  46.7494765
  48.6391623  32.0397751  46.6070168  48.3079573  33.6330947  45.8867594
  50.1838522  33.4846968  46.8944765  50.2927866  34.5630236  47.0104305
  50.6183570  32.9811976  47.7580715  51.0498522  32.9586968  45.4044765
  51.4928522  31.3086968  45.8744765  50.5900747  30.7363454  46.0877969
  52.0401409  30.8330775  45.0606201  52.1212449  31.3402151  46.7645498
  48.2788522  32.8096968  49.1984765  48.9418522  33.4476968  50.0124765
  47.9738522  31.5366968  49.4224765  47.5728522  31.0146968  48.6914765
  48.3278522  30.9116968  50.6844765  48.3737338  31.6424723  51.4919176
  47.2208522  29.8846968  51.0104765  46.2793269  30.4236050  50.9046128
  47.3082778  29.1469269  50.2128848  47.2528522  29.1746968  52.3684765
  47.5558522  29.7946968  53.3854765  46.9458522  27.9856968  52.4084765
  49.7078522  30.2786968  50.6104765  49.8098522  29.0796968  50.3314765
  50.7668522  31.0506968  50.8184765  50.6248522  32.0056968  50.9964765
  52.1108522  30.4926968  50.8124765  52.0498361  29.7395067  50.0269315
  53.1218522  31.5746968  50.3804765  52.8894225  32.4664449  50.9625941
  54.5748522  31.2126968  50.5734765  54.8081663  30.3212450  49.9912572
  55.2030210  32.0386401  50.2398268  54.7638547  31.0164856  51.6288820
  53.0588522  31.6596968  48.9124765  52.0487269  31.9323157  48.6068170
  53.7607505  32.4161051  48.5613569  53.3203534  30.6937062  48.4805272
  52.5028522  29.9126968  52.1744765  52.2198522  30.4636968  53.2474765
  53.1948522  28.7936968  52.1734765  53.4538522  28.3736968  51.3344765
  53.6538522  28.1656968  53.3864765  52.9424651  28.2313862  54.2097094
  53.8788522  26.6626968  53.0414765  54.5049516  26.6087757  52.1508630
  54.5488522  25.9086968  54.1774765  53.9230764  25.9617842  55.0683670
  54.6851361  24.8657617  53.8914481  55.5197476  26.3567880  54.3888458
  52.5908522  26.1006968  52.7354765  52.6938522  25.1716968  52.4764765
  54.9018522  28.9146968  53.8614765  55.9388522  29.0266968  53.2024765
  54.7118522  29.5026968  55.0344765  53.8528522  29.3846968  55.4904765
  55.7058522  30.3556968  55.6544765  55.7451820  30.1450990  56.7232145
  56.6804371  30.1557227  55.2091743  55.3588522  31.8306968  55.4504765
  56.0578522  32.6956968  55.9714765  54.2748522  32.1676968  54.7484765
  53.6478522  31.4796968  54.4534765  53.9348522  33.5686968  54.4864765
  54.7523405  34.0522500  53.9516977  53.0269638  33.6211636  53.8855728
  53.7018522  34.2996968  55.8004765  53.3758522  33.6186968  56.7824765
  53.9228522  35.6256968  55.8514765  54.2768522  36.0506968  55.0424765
  53.6858522  36.4246968  57.0504765  54.2990138  36.0404108  57.8656184
  54.0348522  37.8796968  56.8274765  55.0542624  37.8953760  56.4419168
  53.3520575  38.2503711  56.0629557  53.9468522  38.7536968  58.0414765
  53.0096005  38.5618524  58.5638324  55.1178522  38.4436968  58.9684765
  56.0555132  38.6357571  58.4469369  55.0587209  39.0769913  59.8536557
  55.0773025  37.3965016  59.2682069  53.9978522  40.2176968  57.6234765
  53.1613478  40.4358861  56.9595840  53.9336811  40.8511398  58.5081986
  54.9350712  40.4150818  57.1031316  52.1948522  36.3206968  57.2884765
  51.4028522  36.5716968  56.3764765  51.7758522  35.8806968  58.4544765
  52.4348522  35.6696968  59.1524765  50.3538522  35.6706968  58.6624765
  49.8959674  35.2942465  57.7477493  50.1288522  34.6526968  59.7744765
  50.2183053  35.1985362  60.7137085  49.1062909  34.2930895  59.6597991
  51.0998522  33.4496968  59.7834765  52.0889503  33.8842725  59.9281482
  50.8257147  32.8701653  60.6650058  51.1198522  32.5266968  58.5474765
  50.1366341  32.0731410  58.4223039  51.3627530  33.1160735  57.6633194
  52.1808522  31.4146968  58.7334765  53.1323605  31.8917590  58.9683047
  51.8689896  30.7941998  59.5736100  52.3348522  30.5816968  57.5444765
  51.4248522  30.1336968  57.3154765  52.6408522  31.1736968  56.7454765
  53.0488522  29.8456968  57.7194765  49.6598522  36.9716968  59.0274765
  50.2908522  37.9556968  59.4584765  48.3428522  36.9826968  58.8094765
  47.9398522  36.2336968  58.3274765  47.4978522  38.1116968  59.1744765
  46.5005057  38.0084711  58.7469913  47.3738522  38.1366968  60.7264765
  48.3548167  37.8767600  61.1242713  47.1290608  39.1615106  61.0056426
  46.3168522  37.1816968  61.3054765  45.3674396  37.3656555  60.8026090
  46.6336618  36.1556636  61.1184214  46.1488522  37.3926968  62.7874765
  46.1442489  38.4619606  62.9990248  45.2027527  36.9556039  63.1067647
  47.2858522  36.7356968  63.5374765  48.2409506  36.9882578  63.0769326
  47.2895644  37.0557878  64.5794108  47.0828522  35.2996968  63.4734765
  46.1698522  35.0576968  63.9104765  47.0848522  34.9896968  62.4814765
  47.8508522  34.8216968  63.9854765  47.9848522  39.4606968  58.6334765
  48.0668522  40.4796968  59.3304765  48.2738522  39.4196968  57.3324765
  48.1688522  38.5706968  56.8674765  48.8188522  40.5386968  56.6044765
  49.0443773  41.3668335  57.2763598  50.1158522  40.0876968  55.9324765
  50.8206632  39.7232419  56.6798140  49.9112489  39.2969872  55.2106621
  50.9798522  41.3876968  55.0204765  51.9913260  40.6248224  54.6157027
  47.8818522  41.1306968  55.5844765  47.0858522  40.4416968  54.9294765
  47.9248522  42.4586968  55.5284765  48.5578522  42.9486968  56.0914765
  47.1818522  43.1996968  54.5274765  46.6318456  42.5181634  53.8785511
  46.1888522  44.1466968  55.2394765  46.7225341  44.8078087  55.9222759
  45.4848522  44.9776968  54.1754765  44.9505317  44.3172565  53.4925263
  44.7771679  45.6556854  54.6525666  46.2221551  45.5558959  53.6185478
  45.1468522  43.3526968  56.0664765  44.5494483  42.8132903  55.3314594
  45.7289353  42.6419064  56.6530393  44.2098522  44.1526968  57.0064765
  43.6270675  44.8634209  56.4205302  43.5359478  43.4661230  57.5188908
  44.8065552  44.6920391  57.7421090  48.1688522  43.9676968  53.6374765
  49.1168522  44.5896968  54.1164765  47.9658522  43.9756968  52.3314765
  47.1308522  43.6036968  51.9734765  48.8778522  44.6156968  51.4224765
  49.6230124  45.1895061  51.9734560  49.5928522  43.5556968  50.5974765
  48.8630821  42.8118363  50.2777792  50.0318280  44.0331761  49.7214549
  50.6728522  42.8856968  51.3954765  51.5280714  43.5473989  51.5327770
  50.3013658  42.5661470  52.3691231  51.0918522  41.6876968  50.6044765
  50.2282023  41.0740044  50.3483719  51.6151865  41.9760542  49.6928457
  51.9828522  40.9106968  51.4204765  52.8688522  41.2716968  51.6304765
  51.6418522  39.7096968  51.9134765  50.4488522  39.1536968  51.6874765
  49.7728522  39.6256968  51.1234765  50.2368522  38.2536968  52.0684765
  52.5228522  39.0086968  52.6084765  53.4388522  39.3786968  52.7654765
  52.2718522  38.1126968  52.9744765  48.0878522  45.5466968  50.5194765
  46.9018522  45.3116968  50.3024765  48.6858522  46.6146968  50.0104765
  49.6588522  46.7176968  50.1074765  47.9718522  47.5406968  49.1374765
  47.0420256  47.0422258  48.8635272  47.6218522  48.8896968  49.8764765
  46.7462493  48.7210568  50.5033571  48.7598522  49.3666968  50.7264765
  49.6357455  49.5360097  50.1001817  48.4805725  50.2980427  51.2191204
  48.9922724  48.6135298  51.4793522  47.3918522  50.0186968  48.8794765
  46.5641523  49.7584834  48.2197009  47.1524796  50.9359996  49.4173945
  48.2941536  50.1704204  48.2870804  48.8668522  47.7886968  47.9524765
  50.0818522  47.7446968  48.1174765  48.2878522  47.9236968  46.7774765
  47.3208522  47.7726968  46.7254765  48.9908522  48.2766968  45.5644765
  50.0367423  48.4698675  45.8030100  48.9268522  47.1806968  44.5364765
  49.4436640  46.3192366  44.9594318  47.8732564  46.9389543  44.3964889
  49.5538522  47.5386968  43.1814765  49.0334017  47.0070478  42.3848703
  49.4743186  48.6126754  43.0131128  51.2818522  47.0676968  43.1724765
  51.9098522  48.6886968  43.0064765  51.5881095  49.2922357  43.8551940
  52.9989501  48.6557054  42.9768437  51.5350354  49.1313771  42.0836288
  48.1468522  49.4356968  45.1034765  46.9998522  49.2686968  44.6884765
  48.6778522  50.6256968  45.3244765  49.5768522  50.6806968  45.6974765
  47.9758522  51.8606968  44.9724765  46.9309117  51.6460257  44.7486131
  48.0328522  52.8436968  46.1394765  47.6535792  52.3487378  47.0334937
  49.0701713  53.1375366  46.2998739  47.1828522  54.0976968  45.8464765
  47.4859137  54.5137670  44.8856747  46.1323144  53.8104306  45.8023116
  47.4028522  55.3476968  47.1304765  49.1498522  55.3476968  47.2024765
  49.5541579  55.6229943  46.2283886  49.4831946  56.0673349  47.9502094
  49.5028294  54.3527584  47.4737807  48.6248522  52.4686968  43.7494765
  49.8228522  52.7776968  43.7714765  47.8328522  52.5646968  42.6934765
  46.8978522  52.2776968  42.7474765  48.3158522  53.0366968  41.4114765
  49.3880708  52.8961190  41.2747856  47.5648522  52.1806968  40.3564765
  46.5284738  52.5140450  40.3026351  48.2118522  52.3256968  38.9974765
  49.2481911  51.9920829  39.0504210  47.6719420  51.7186090  38.2708125
  48.1824728  53.3710706  38.6901802  47.5878522  50.8156968  40.7684765
  47.2408522  50.2306968  40.0664765  48.1068522  54.5576968  41.2674765
  46.9668522  55.0246968  41.3014765  49.1468522  55.3746968  41.1224765
  50.0308522  54.9956968  41.0424765  49.0748522  56.8286968  41.1474765
  48.0198817  57.1027749  41.1432759  49.7398522  57.4266968  42.4244765
  49.5988152  58.5074429  42.4384587  49.0958522  56.8166968  43.6564765
  49.2368879  55.7359379  43.6434324  49.5579154  57.2321051  44.5520400
  48.0297020  57.0434443  43.6597887  51.2248522  57.1066968  42.5104765
  51.7368141  57.5188013  41.6408979  51.6397593  57.5459190  43.4176896
  51.3633360  56.0257970  42.5345359  49.6978522  57.5786968  39.9824765
  50.8328522  57.2926968  39.5954765  48.9718522  58.5396968  39.3994765
  48.0318522  58.6086968  39.6624765  49.5138522  59.5396968  38.4834765
  49.8718346  59.1084530  37.5486093  48.3368522  60.4376968  38.1814765
  47.6404557  59.7684814  37.6762223  47.9525456  60.6806146  39.1721325
  48.4908522  61.7166968  37.3694765  49.4257728  62.1970844  37.6580110
  48.5143072  61.4877509  36.3040490  47.3308522  62.6956968  37.6374765
  46.5158522  63.0236968  36.7624765  47.2078522  63.2326968  38.8534765
  46.4458522  63.8296968  38.9904765  47.8628522  62.9986968  39.5414765
  50.6628522  60.2516968  39.2494765  50.3778522  60.8626968  40.2874765
  51.9458522  60.1566968  38.8594765  52.1378522  59.6516968  38.0404765
  53.0928522  60.7536968  39.5444765  52.7818588  61.6966703  39.9941243
  53.5978522  59.8246968  40.6544765  52.7364495  59.5836009  41.2773395
  54.2448522  58.5426968  40.1694765  55.1066707  58.7829981  39.5468820
  54.5695521  57.9522588  41.0262449  53.5242776  57.9695877  39.5860222
  54.5888522  60.5656968  41.3704765  54.5958522  60.2146968  42.2804765
  54.2288522  60.9876968  38.5394765  54.2068522  60.4846968  37.4014765
  55.2318522  61.7776968  38.9064765  55.1988522  62.1606968  39.8104765
  56.3948522  62.0096968  38.0694765  56.3578963  61.3233722  37.2234907
  56.4648522  63.4556968  37.5294765  56.2720640  64.0563776  38.4183603
  57.5002266  63.5918481  37.2171261  55.5218522  63.9026968  36.3924765
  55.1418522  63.1106968  35.5124765  55.1868522  65.0966968  36.3854765
  57.6488522  61.7616968  38.8864765  58.7638522  62.0236968  38.4304765
  57.4958522  61.2656968  40.1184765  56.6048522  60.9836968  40.4074765
  58.6238522  60.8886968  40.9694765  59.2863688  61.7529625  41.0165483
  58.1428522  60.5536968  42.4064765  57.5246680  59.6563234  42.3806190
  59.3328522  60.3176968  43.2994765  59.9513112  61.2148562  43.3262051
  58.9905531  60.0828318  44.3073307  59.9189791  59.4843938  42.9119675
  57.3938522  61.7196968  43.0244765  56.5222358  61.9566696  42.4143694
  57.0706680  61.4523611  44.0305496  58.0498526  62.5888359  43.0730719
  59.1988522  59.6376968  40.3024765  58.4078522  58.8216968  39.8214765
  60.5088522  59.4246968  40.1804765  61.5398522  60.4106968  40.4294765
  61.8945373  60.3394869  41.4576924  61.1583285  61.4151303  40.2460317
  62.6008522  59.9966968  39.4134765  63.5802791  60.4022392  39.6671642
  62.3310896  60.3049171  38.4033628  62.5768522  58.5046968  39.5414765
  63.0081011  58.1666361  40.4837283  63.0476130  57.9720178  38.7151974
  61.0998522  58.2516968  39.5374765  60.7263544  58.2018964  38.5146776
  60.7588522  56.9716968  40.2594765  60.7028522  56.9826968  41.4954765
  60.6528522  55.8726968  39.5014765  60.7098522  55.9706968  38.5264765
  60.3918522  54.5406968  40.0514765  59.3343150  54.4392566  40.2952469
  60.7598522  53.4746968  39.0364765  60.3405148  53.7837084  38.0789969
  61.8475478  53.4577899  38.9676831  60.2528522  52.0846968  39.3864765
  60.7861997  51.6543996  40.2341118  59.1858248  52.1154848  39.6069457
  60.4688522  51.2116968  38.1934765  59.5588522  50.9126968  37.4384765
  61.6898522  50.7726968  37.9454765  61.7668522  50.2596968  37.1214765
  62.4238522  50.9786968  38.5644765  61.1428522  54.2296968  41.3354765
  60.5828522  53.9056968  42.3824765  62.4418522  54.4876968  41.2704765
  62.7988522  54.8866968  40.4514765  63.3258522  54.2366968  42.3814765
  63.0985366  53.2871226  42.8659718  64.7578522  54.1696968  41.8134765
  65.3222726  53.6507548  42.5882204  64.6844863  53.5343010  40.9308725
  65.4758522  55.4746968  41.4454765  64.9138522  56.4286968  40.8944765
  66.6638522  55.5166968  41.7174765  63.2078522  55.2636968  43.4954765
  64.0748522  55.3216968  44.3634765  62.2108522  56.1396968  43.4834765
  61.4908522  56.0356968  42.8414765  62.0598522  57.1206968  44.5314765
  62.7534489  56.9013958  45.3432215  62.3448522  58.4776968  44.0204765
  61.7953078  58.6333515  43.0921060  62.0250452  59.2128037  44.7590164
  63.8088522  58.6336968  43.7644765  64.4064344  58.2340089  44.5837725
  64.0888271  58.1372231  42.8353747  64.0988522  60.1026968  43.6304765
  63.7748522  60.7406968  42.6244765  64.7068522  60.6536968  44.6684765
  64.8678522  61.6156968  44.6354765  64.9728522  60.0696968  45.4114765
  60.6788522  57.1376968  45.1294765  60.3758522  57.9946968  45.9624765
  59.8228522  56.2126968  44.6984765  60.1358522  55.5606968  44.0414765
  58.4898522  56.0536968  45.2494765  57.9463397  56.9982845  45.2706253
  57.7158522  55.0316968  44.3764765  58.3214199  54.1365546  44.2346716
  56.4248522  54.6616968  45.0754765  55.8185043  55.5563194  45.2172269
  55.8749330  53.9432428  44.4676003  56.6503411  54.2187691  46.0455636
  57.4308522  55.5996968  42.9884765  58.3940770  55.9394301  42.6078453
  57.0825135  54.7559162  42.3928307  56.4098522  56.7476968  42.8974765
  56.7577547  57.5920676  43.4925408  56.3014716  57.0566803  41.8578217
  55.4461913  56.4085540  43.2775286  58.7188522  55.5456968  46.6694765
  59.7078522  54.8496968  46.9334765  57.8448522  55.8456968  47.6154765
  57.0648522  56.4096968  47.4104765  58.0308522  55.3466968  48.9764765
  59.0203245  54.9090237  49.1087118  57.8988522  56.5236968  49.9014765
  56.9807858  57.0812874  49.7161500  57.9341024  56.2202569  50.9477946
  59.0958522  57.4026968  49.5894765  59.9860356  56.8095881  49.7989914
  59.0525964  57.6281387  48.5239217  59.1528522  58.6686968  50.3604765
  58.9877249  59.5103881  49.6878787  58.3780632  58.6594593  51.1271029
  60.4518522  58.8356968  51.0094765  61.1048522  59.4466968  50.6084765
  60.7928522  58.1876968  52.1324765  59.9728522  57.3206968  52.7464765
  59.0618522  57.1346968  52.3774765  60.2708522  56.8656968  53.5854765
  61.9738522  58.4576968  52.6894765  62.5838522  59.1266968  52.2654765
  62.2508522  57.9876968  53.5264765  56.9908522  54.2636968  49.2334765
  55.7908522  54.5096968  49.1324765  57.4278522  53.0216968  49.4544765
  58.3808522  52.9096968  49.6734765  56.5298522  51.8796968  49.6704765
  55.5425168  52.1237025  49.2783934  57.0428522  50.5946968  48.9604765
  57.9511223  50.1750532  49.3929624  56.2451615  49.8530135  49.0016530
  57.3358522  50.8396968  47.4814765  58.5178522  51.0756968  46.9334765
  59.3958522  51.0496968  47.3864765  58.3358522  51.3126968  45.6534765
  59.1913513  51.4837024  45.0000413  57.0578522  51.2226968  45.3884765
  56.6578522  51.4096968  44.5034765  56.4058522  50.9346968  46.4724765
  55.3313951  50.7560250  46.4310101  56.5318522  51.6666968  51.1714765
  57.6038522  51.6446968  51.7684765  55.3828522  51.5146968  51.8154765
  54.5648522  51.3176968  51.3114765  55.3478522  51.4796968  53.2624765
  56.2899383  51.8341999  53.6806876  54.2238522  52.4566968  53.6784765
  53.3203117  52.1884844  53.1309586  53.9448522  52.4046968  55.1734765
  54.8478683  52.6732587  55.7216894  53.1485519  53.1071243  55.4196509
  53.6380039  51.3964039  55.4514894  54.6848522  53.8846968  53.3394765
  54.8727180  53.9617944  52.2685589  53.9082897  54.5948328  53.6236545
  55.6006524  54.1106915  53.8856791  55.1668522  50.0686968  53.8104765
  54.3878522  49.2756968  53.2844765  55.8838522  49.7226968  54.8834765
  56.4628522  50.3816968  55.3234765  55.8398522  48.3926968  55.4274765
  54.9633698  47.8674538  55.0480064  57.1128522  47.5946968  55.0204765
  57.9261215  48.3180218  55.0795804  57.3040376  46.7762873  55.7145615
  57.0228522  47.0436968  53.5944765  57.2838522  47.9056968  52.5244765
  57.6241815  48.9206973  52.7295361  57.1148522  47.4836968  51.2184765
  57.3617929  48.1354660  50.3804317  56.6898522  46.1896968  50.9854765
  56.4538522  45.8326968  49.6854765  56.9288522  46.4386968  49.1084765
  56.4428522  45.3016968  52.0264765  56.1239622  44.2789511  51.8254765
  56.6088522  45.7366968  53.3474765  56.4143659  45.0539545  54.1746029
  55.7788522  48.5996968  56.9014765  56.7438522  49.0486968  57.4994765
  54.6368522  48.2866968  57.4914765  53.9398522  47.8296968  56.9774765
  54.3728522  48.4926968  58.8894765  55.2567023  48.8556287  59.4140608
  53.2848522  49.5476968  58.9844765  52.4316954  49.0546050  58.5185546
  53.0885565  49.6845313  60.0478881  53.5068522  50.9136968  58.3264765
  53.6498672  50.7921609  57.2527556  52.2798522  51.7726968  58.5794765
  52.1364457  51.8950724  59.6530488  52.4188144  52.7504638  58.1182154
  51.4025868  51.2898212  58.1489687  54.7668522  51.5706968  58.8734765
  55.6276942  50.9346517  58.6673281  54.9089118  52.5397679  58.3951235
  54.6672150  51.7086579  59.9501092  53.9638522  47.2396968  59.6484765
  53.3868522  46.2996968  59.0824765  54.2578522  47.2796968  60.9634765
  54.7478522  48.0666968  61.2734765  53.9708522  46.2696968  61.9784765
  54.1849252  46.6674295  62.9704849  52.4958522  45.8686968  61.9204765
  52.3689849  45.3831481  60.9528782  52.3675630  45.1335166  62.7149272
  51.4568522  46.9686968  62.0754765  51.7051071  47.7448857  61.3515972
  50.4818464  46.5455874  61.8337302  51.4158522  47.5656968  63.4564765
  51.1858522  46.7986968  64.3824765  51.5998522  48.7776968  63.5954765
  54.8548522  45.0616968  61.7474765  56.0518522  45.2636968  61.5204765
  54.3818522  43.8036968  61.7604765  53.4808522  43.6076968  62.1014765
  55.2378522  42.6786968  61.4214765  56.1936599  42.7433037  61.9414350
  54.5288522  41.3986968  61.8604765  53.4458932  41.5217967  61.8484199
  54.8052588  40.5557491  61.2271214  54.9968522  41.1336968  63.2964765
  55.9924316  40.6995551  63.2045879  55.0706993  42.1145595  63.7661114
  54.1188522  40.2196968  64.1584765  53.8998643  39.3162940  63.5892607
  54.6756348  39.9559306  65.0576539  52.8028522  40.9066968  64.5544765
  53.0460696  41.7885394  65.1471816  52.2900052  41.2125791  63.6425976
  51.9398522  40.0306968  65.3234765  52.4278522  39.7336968  66.1934765
  51.0668522  40.5356968  65.5744765  51.7068522  39.1916968  64.7544765
  55.6488522  42.6116968  59.9444765  56.6228522  41.9246968  59.5784765
  54.9948522  43.4126968  59.0804765  54.2748522  43.9906968  59.4104765
  55.3238522  43.4646968  57.6604765  55.2960856  42.4440863  57.2787927
  54.3018522  44.2876968  56.9124765  54.3240647  45.3145962  57.2772836
  54.5340207  44.2758790  55.8475547  53.3088840  43.8673885  57.0720208
  56.6928522  44.0576968  57.3694765  57.2428522  43.8626968  56.2884765
  57.3468522  44.7276968  58.3094765  56.9278522  44.8346968  59.1894765
  58.6598522  45.3156968  58.0674765  58.6600761  45.9877890  57.2093441
  59.1588522  46.0896968  59.2974765  60.1787021  46.4223958  59.1043006
  58.2758522  47.3016968  59.5974765  57.2558722  46.9697288  59.7912260
  58.6600900  47.8238300  60.4737405  58.2813271  47.9766314  58.7415939
  59.2098522  45.0976968  60.4634765  59.8922785  44.2836624  60.2190497
  59.5605445  45.6081841  61.3604253  58.2130762  44.6943187  60.6418709
  59.7128522  44.2676968  57.7154765  60.8608522  44.5966968  57.3914765
  59.3578522  42.9876968  57.8194765  58.4878522  42.7216968  58.1774765
  60.3178522  41.9896968  57.4694765  61.3594624  42.3036077  57.4015981
  60.2068522  40.8936968  58.5244765  60.1234892  41.3855839  59.4935982
  59.0128522  39.9576968  58.3234765  59.0957607  39.4650625  57.3546945
  59.0026852  39.2062174  59.1129547  58.0884947  40.5342149  58.3594166
  61.5698522  40.2276968  58.5024765  62.3372091  40.9610766  58.7503062
  61.5914833  39.4189709  59.2329518  61.7614966  39.8238814  57.5083405
  60.1488522  41.4766968  56.0554765  60.9728522  40.6796968  55.6034765
  59.1398522  41.9526968  55.3244765  58.5868522  42.6746968  55.6804765
  58.8788522  41.4656968  53.9744765  58.9453396  40.3777290  53.9723155
  57.4898522  41.8726968  53.4684765  57.5020721  42.9492376  53.6387987
  57.4746624  41.6750960  52.3966447  56.2448522  41.2696968  54.1144765
  56.2399802  41.4635203  55.1870946  55.0298522  41.9306968  53.4734765
  55.0337865  41.7369084  52.4008491  54.1195653  41.5224557  53.9125865
  55.0662448  43.0060146  53.6480263  56.2258522  39.7486968  53.9704765
  57.1063798  39.3263554  54.4546236  55.3269443  39.3499098  54.4406198
  56.2306596  39.4832180  52.9133119  59.8858522  41.9846968  52.9694765
  60.4658522  41.2496968  52.1704765  60.1228522  43.2786968  53.0074765
  59.7418522  43.8486968  53.7094765  61.0088522  43.8786968  52.0444765
  61.6103723  43.1226587  51.5398189  60.1588522  44.5886968  51.0124765
  59.2551729  43.9964291  50.8686643  59.8926184  45.5632884  51.4216107
  60.8488522  44.7716968  49.6984765  60.2626573  45.4774702  49.1099527
  61.8341162  45.1941470  49.8956890  61.0018522  43.4626968  48.9204765
  61.5429301  42.7107471  49.4948504  60.0368983  43.0595438  48.6131801
  61.7728522  43.7836968  47.7304765  62.7428522  43.6516968  47.7534765
  61.2228522  44.2516968  46.6034765  59.9098522  44.4536968  46.4464765
  59.2738522  44.2546968  47.1914765  59.5648522  44.8086968  45.5774765
  62.0368522  44.6066968  45.6224765  63.0268522  44.5206968  45.7374765
  61.6618522  44.9586968  44.7654765  61.7718522  44.8256968  52.9394765
  61.1748522  45.7696968  53.4764765  63.0318522  44.4976968  53.2504765
  63.5438522  43.1316968  53.3124765  64.4535366  43.0156005  52.7233277
  62.8004689  42.4078429  52.9785365  63.8028522  43.0486968  54.8104765
  64.4852270  42.2309873  55.0424572  62.8709958  42.9102329  55.3587215
  64.4278522  44.4046968  55.1314765  65.5144498  44.3379254  55.0771971
  64.1356416  44.7726679  56.1149956  63.9128522  45.3446968  54.0514765
  63.3093467  46.1257674  54.5138702  65.0068522  45.9826968  53.2074765
  66.2088522  45.9316968  53.5024765  64.4978522  46.5246968  52.1084765
  63.5268522  46.5906968  51.9884765  65.2368522  47.2006968  51.0694765
  66.0826502  47.7374948  51.4990959  65.7808522  46.1526968  50.0354765
  66.1848954  46.7265205  49.2014653  66.5941901  45.6464196  50.5553466
  64.7888522  45.1136968  49.5064765  64.5338522  44.1356968  50.1994765
  64.2588522  45.2916968  48.4144765  64.1278522  48.1056968  50.5044765
  64.0798522  49.2756968  50.8674765  63.2521844  47.6401300  49.7786025
  43.8778522  60.9576968  31.9384765  43.3313950  60.2554055  31.4606977
  44.5090470  61.3844483  31.2754707  43.2565540  61.5344452  32.4875204
  44.7268522  60.2896968  32.8984765  45.7707582  60.4989048  32.6648283
  44.4408522  60.7646968  34.3184765  44.3227821  61.8465452  34.3798178
  43.5664484  60.2791493  34.7517911  45.6608522  60.3546968  35.0714765
  45.9255991  59.3677778  34.6920021  46.4349771  61.0699422  34.7935254
  45.5378522  60.2856968  36.8454765  43.9368522  59.6426968  37.2094765
  43.8358319  58.6491727  36.7726656  43.8073815  59.5789023  38.2898784
  43.1762481  60.3019704  36.7912171  44.2888522  58.8366968  32.7494765
  43.5038522  58.5606968  31.8394765  44.7918522  57.8726968  33.4994765
  45.4278522  58.0256968  34.2254765  44.2348522  56.5606968  33.4424765
  43.6072948  56.4669242  32.5562047  45.4588522  55.6216968  33.3094765
  46.3229427  56.1748280  33.6775713  45.3378522  54.3206968  34.0614765
  44.4741912  53.7667568  33.6935896  46.2401196  53.7280080  33.9106973
  45.2116342  54.5253353  35.1246280  45.5458522  55.2696968  31.8114765
  45.6606679  54.1874954  31.7501707  44.5942241  55.5594066  31.3658627
  46.6908522  55.9476968  31.0544765  47.6428977  55.6580769  31.4992568
  46.6695859  55.6384383  30.0094855  46.5764549  57.0299888  31.1149509
  43.4338522  56.5326968  34.7374765  43.8918522  57.0366968  35.7644765
  42.1808522  56.1066968  34.6844765  41.8078522  55.7906968  33.8414765
  41.3498522  55.9916968  35.8704765  41.9467785  56.1658945  36.7657046
  40.2368522  57.0246968  35.8204765  39.8559784  57.0922772  34.8014243
  39.4324343  56.7176082  36.4888390  40.7628522  58.3756968  36.2524765
  41.5112619  58.2079103  37.0269643  41.2346485  58.8401461  35.3865682
  39.6728522  59.2946968  36.7904765  38.7894455  59.2468441  36.1537649
  39.4035581  59.0072550  37.8068216  40.1588522  60.6576968  36.8074765
  39.9178522  61.2506968  36.0644765  40.9168522  61.1516968  37.7784765
  41.2868522  60.4366968  38.8434765  40.9948522  59.4856968  38.9384765
  41.8598522  60.8536968  39.5494765  41.4028522  62.3816968  37.6274765
  41.1998522  62.9016968  36.7984765  41.9798522  62.7816968  38.3384765
  40.7428522  54.5926968  35.9834765  40.6708522  53.8486968  34.9924765
  40.3568522  54.1796968  37.1944765  40.4688522  54.7796968  37.9684765
  39.7238522  52.8686968  37.4174765  40.0575543  52.2014056  36.6228290
  40.0740993  52.4920547  38.3785004  38.1898522  52.9076968  37.4254765
  37.5708522  53.7986968  38.0244765  37.5028522  52.0096968  36.7264765
  37.9728522  51.3416968  36.1814765  36.0558522  51.9716968  36.7634765
  35.7686347  52.8907625  37.2742832  35.4718522  51.9706968  35.3494765
  35.7723697  51.0692149  34.8155102  33.9698522  52.0036968  35.4734765
  33.6685257  52.9051908  36.0069663  33.5226148  52.0037706  34.4794546
  33.6308259  51.1260252  36.0237973  35.8228522  53.2216968  34.5774765
  35.1868627  54.0320077  34.9338669  36.8663825  53.4645343  34.7779111
  35.6218522  53.0406968  33.0714765  34.5783851  52.7982782  32.8702068
  35.8858768  53.9638835  32.5556116  36.2579038  52.2308026  32.7142513
  35.7488522  50.6726968  37.4974765  36.4848522  49.7106968  37.3534765
  34.6508522  50.5856968  38.2384765  33.9018522  51.1676968  38.0074765
  34.3308522  49.4946968  39.1414765  35.0891111  48.7209769  39.0210593
  34.2828522  49.9016968  40.5964765  33.8729403  50.9116812  40.5947443
  33.5676261  49.2206481  41.0576969  35.5728522  49.8836968  41.3814765
  36.3111482  50.4656658  40.8298136  35.3866762  50.3550967  42.3464752
  36.1038522  48.4616968  41.6014765  36.6480823  48.1667992  40.7042875
  36.7879955  48.4846261  42.4497227  35.0638522  47.4696968  41.8654765
  34.7688522  46.9046968  41.1194765  34.4878522  47.2746968  43.0494765
  34.8148522  47.9696968  44.1224765  35.5138522  48.6806968  44.0664765
  34.3558522  47.7876968  44.9924765  33.5208522  46.3906968  43.1494765
  33.2318522  45.8736968  42.3424765  33.0678522  46.2396968  44.0264765
  32.9408522  49.0496968  38.8214765  32.0798522  49.8996968  38.5544765
  32.7338522  47.7496968  38.9094765  33.4718522  47.1656968  39.1954765
  31.4408522  47.1636968  38.7004765  30.6422528  47.8814540  38.8879934
  31.3413868  46.7659014  37.6905434  31.3228522  46.0216968  39.6954765
  32.3278522  45.5906968  40.2884765  30.1088522  45.5416968  39.9274765
  29.3298522  45.9956968  39.5314765  29.8668522  44.3516968  40.7244765
  30.5739285  43.5491736  40.5144788  29.9078522  44.6576968  42.2104765
  29.1983408  45.4533097  42.4378390  29.6424350  43.7630001  42.7736566
  30.9122672  44.9768560  42.4886622  28.4788522  43.8626968  40.3564765
  27.6098522  44.6606968  39.9724765  28.2698522  42.5516968  40.3434765
  28.9878522  41.9486968  40.6324765  26.9838522  41.9666968  40.0464765
  26.1953023  42.6491413  40.3635848  26.8808522  41.7696968  38.5204765
  27.1249045  42.7358863  38.0788698  27.7648522  40.6996968  37.9134765
  27.5210464  39.7330817  38.3542866  27.6001702  40.6593357  36.8367453
  28.8103174  40.9356717  38.1120188  25.5408522  41.3796968  38.3174765
  25.2628522  41.7286968  37.4574765  26.9578522  40.6476968  40.8394765
  27.9278522  40.3126968  41.5394765  25.8918522  39.8496968  40.7894765
  25.1768522  40.0496968  40.1464765  25.8018522  38.6176968  41.5604765
  26.7898516  38.2552074  41.8443037  24.9448522  38.8086968  42.8614765
  24.7645092  37.8347692  43.3164949  25.6688522  39.6866968  43.8334765
  25.8491528  40.6610260  43.3793026  25.0639620  39.8114019  44.7316165
  26.6214920  39.2280305  44.0984355  23.6558522  39.3636968  42.5284765
  23.3308522  38.8536968  41.7704765  25.1438522  37.5606968  40.7034765
  24.2328522  37.9496968  39.9614765  25.4928522  36.2656968  40.7474765
  26.1848522  35.9836968  41.3864765  24.7148522  35.2426968  40.0284765
  24.0262324  35.6934047  39.3137987  25.6218522  34.2486968  39.2784765
  25.0335920  33.5244449  38.7149976  26.4478522  35.0826968  38.3204765
  27.0367774  35.8069237  38.8832938  27.1157998  34.4327984  37.7551636
  25.7860598  35.6092158  37.6327919  26.4908522  33.4156968  40.1904765
  25.8601414  32.8355160  40.8640462  27.1019269  32.7392546  39.5928868
  27.1385760  34.0702522  40.7736677  23.8558522  34.4736968  41.0414765
  24.1478522  34.4866968  42.2324765  22.7408522  33.8736968  40.6154765
  22.4668522  34.0716968  39.7044765  21.8428522  33.0976968  41.4744765
  21.7335897  33.5875413  42.4420576  20.4638522  32.9906968  40.8224765
  20.3582432  33.8883056  40.2131782  20.5142310  32.1159408  40.1741217
  19.2458522  32.8626968  41.7664765  18.5808181  32.1228278  41.3210280
  19.6617883  32.4657998  42.6925268  18.4508522  34.1526968  42.0704765
  18.2188522  34.9546968  41.1574765  18.0358522  34.3426968  43.2234765
  22.3718522  31.6876968  41.7104765  22.1528522  31.0776968  42.7584765
  23.0638522  31.1506968  40.7104765  23.3398522  31.6976968  39.9504765
  23.5718522  29.8026968  40.7584765  23.5874328  29.4373619  41.7853099
  22.6628522  28.8956968  39.9314765  22.5529015  29.3566279  38.9498694
  23.1710661  27.9370709  39.8272888  21.2898522  28.6766968  40.5444765
  21.3716931  27.9162364  41.3210735  20.9523048  29.6133950  40.9880530
  20.2888522  28.2236968  39.4964765  20.7269738  27.4079691  38.9213793
  19.3949044  27.8674631  40.0083888  19.9068522  29.2926968  38.5764765
  20.4268522  29.4096968  37.7544765  18.8768522  30.1336968  38.8024765
  18.1198522  30.0546968  39.9054765  18.3088522  29.3596968  40.5984765
  17.3658522  30.6996968  40.0364765  18.5848522  31.0626968  37.8824765
  19.1298522  31.1246968  37.0474765  17.8238522  31.6946968  38.0324765
  24.9758522  29.8046968  40.1774765  25.3228522  30.6036968  39.2984765
  25.7908522  28.8716968  40.6304765  25.4648522  28.2516968  41.3164765
  27.1478522  28.6986968  40.1334765  27.6011347  29.6695509  39.9332854
  27.9948522  27.9696968  41.1814765  27.8970429  28.5244091  42.1146575
  27.5422556  26.9847117  41.2957603  29.4658522  27.8136968  40.8374765
  29.9758522  28.5716968  40.0154765  30.1088522  26.9346968  41.4104765
  27.1438522  27.9026968  38.8284765  27.6498522  26.7866968  38.7444765
  26.5928522  28.4506968  37.7694765  26.2898522  29.3836968  37.8054765
  26.5658522  27.7206968  36.5334765  27.1273638  26.7866177  36.5161501
  25.0538522  27.3966968  36.3364765  24.7004449  26.9119237  37.2465306
  24.2038522  28.6306968  36.0554765  24.5563921  29.1157763  35.1452495
  23.1626646  28.3341460  35.9286499  24.2839124  29.3256983  36.8913376
  24.9678522  26.4426968  35.2714765  24.1158522  25.9746968  35.3424765
  27.2548522  28.6096968  35.4984765  27.1908522  29.8456968  35.5854765
  27.9708522  28.0116968  34.5394765  27.9848522  27.0286968  34.5314765
  28.7318522  28.7226968  33.5194765  29.5195771  29.3033693  33.9994849
  29.3818522  27.7486968  32.5084765  30.0242054  27.0572039  33.0537464
  28.5925979  27.1904144  32.0049902  30.2198522  28.5116968  31.4614765
  29.5580199  29.3192803  31.1486064  31.0628325  28.9268484  32.0138646
  30.7338522  27.7706968  30.2314765  31.4828522  26.8106968  30.3884765
  30.4078522  28.1646968  29.1084765  27.8048522  29.6566968  32.7614765
  28.1288522  30.8286968  32.5604765  26.6078522  29.1776968  32.4254765
  26.3868522  28.2426968  32.6424765  25.6538522  29.9756968  31.6674765
  26.0983660  30.2790560  30.7195947  24.3708522  29.1576968  31.3734765
  23.8118445  29.7247401  30.6291168  24.7033319  28.2156609  30.9374424
  23.4658522  28.8706968  32.5854765  24.0984295  28.2888956  33.2558900
  23.2781638  29.8510315  33.0234445  22.1288522  28.1376968  32.3774765
  21.7478522  27.8446968  31.2374765  21.4628522  27.8656968  33.3874765
  25.2868522  31.2646968  32.3994765  24.9678522  32.2656968  31.7574765
  25.4028522  31.2806968  33.7274765  25.8028522  30.5136968  34.1824765
  25.0548522  32.4346968  34.5184765  24.3038318  33.0302979  33.9995095
  24.5028522  32.0086968  35.8184765  24.4874214  30.9252695  35.9369939
  25.0200047  32.4590296  36.6657389  23.1048522  32.5216968  35.7604765
  23.1346864  33.5868772  35.5311267  22.5689347  31.9953708  34.9706205
  22.4038522  32.3126968  37.0614765  22.5188522  33.1906968  37.9154765
  21.7538522  31.2716968  37.2044765  26.1908522  33.3896968  34.7934765
  26.0148522  34.5986968  34.6154765  27.3368522  32.8766968  35.2494765
  27.3678522  31.9196968  35.4604765  28.5258522  33.6946968  35.4324765
  28.3804006  34.4802294  36.1740164  29.6928522  32.7836968  35.8704765
  29.7839507  31.9453763  35.1798099  30.9868522  33.5926968  35.8614765
  30.8966788  34.4309867  36.5523017  31.8161379  32.9560513  36.1698084
  31.1732770  33.9696934  34.8558829  29.4088522  32.1826968  37.2444765
  29.2853859  33.0128129  37.9400079  28.4717252  31.6313555  37.1675658
  30.5168522  31.2426968  37.7584765  31.4542455  31.7934863  37.8360954
  30.2404374  30.8568447  38.7397064  30.6405863  30.4120296  37.0636515
  28.8458522  34.4196968  34.1174765  29.0568522  35.6356968  34.1304765
  28.8158522  33.7626968  32.9504765  28.6238522  32.8006968  32.9354765
  29.1138522  34.4556968  31.7064765  30.0261482  35.0408249  31.8224087
  29.3158522  33.4516968  30.5554765  28.3425439  32.9889794  30.3921890
  29.5721288  34.0707047  29.6956791  30.3858522  32.3506968  30.7344765
  30.0216837  31.5803129  31.4141756  30.6628522  31.7376968  29.3804765
  31.0275221  32.5074350  28.7003164  31.4163336  30.9566283  29.4819585
  29.7446876  31.3064554  28.9815968  31.6988522  32.9006968  31.2804765
  31.5240664  33.3613907  32.2527473  32.4171213  32.0879029  31.3879795
  32.0953859  33.6465593  30.5916012  28.0068522  35.4376968  31.3544765
  28.3148522  36.5266968  30.8764765  26.7358522  35.1736968  31.6354765
  26.5028522  34.3246968  32.0634765  25.6748522  36.1166968  31.3164765
  25.7833035  36.4902092  30.2982299  24.3938522  35.4286968  31.4264765
  24.4882397  34.4553460  30.9450427  24.1721140  35.2901030  32.4846466
  23.2898522  36.1946968  30.7844765  23.1810524  37.1694837  31.2599278
  23.3565935  36.3233749  29.7041573  22.0808522  35.3756968  31.0934765
  21.2778522  35.7166968  31.9714765  21.9778522  34.2256968  30.4074765
  21.2248522  33.6416968  30.6214765  22.6678522  34.0186968  29.7434765
  25.5948522  37.3796968  32.1684765  25.3558522  38.4896968  31.6744765
  25.7608522  37.2146968  33.4764765  25.8448522  36.3096968  33.8314765
  25.7778522  38.3346968  34.3764765  24.9172355  38.9800849  34.2006580
  25.7158522  37.8216968  35.8034765  26.5391285  37.1299950  35.9819816
  25.7875232  38.6581435  36.4986888  24.3868522  37.0966968  36.0144765
  24.1371949  36.5894164  35.0825759  24.5366829  36.3572907  36.8011985
  23.2588522  38.0206968  36.4014765  23.0878308  37.9706550  37.4768120
  23.5025721  39.0451751  36.1201508  22.0208522  37.5856968  35.6784765
  21.9210955  36.5017187  35.7345174  21.1449719  38.0543299  36.1271587
  22.1268522  37.9896968  34.2904765  22.2308522  39.0226968  34.2374765
  22.9598522  37.5386968  33.8584765  21.2698522  37.7026968  33.7764765
  27.0278522  39.1726968  34.1484765  26.9078522  40.4056968  34.1694765
  28.1968522  38.5666968  33.8764765  28.2708522  37.5906968  33.9144765
  29.3998522  39.3266968  33.5724765  29.5214500  40.0917451  34.3392974
  30.6308522  38.3976968  33.6034765  30.4902772  37.6659363  32.8079480
  31.9668522  39.0956968  33.4184765  32.1083536  39.8273322  34.2139553
  32.7700502  38.3597527  33.4553338  31.9824146  39.6017018  32.4531696
  30.6178522  37.8326968  34.9124765  30.0808522  37.0336968  34.8924765
  29.3018522  40.0556968  32.2324765  29.7368522  41.2096968  32.1844765
  28.7008522  39.5206968  31.1564765  28.3928522  38.5896968  31.1944765
  28.5278522  40.2726968  29.9214765  29.4907356  40.5982641  29.5278258
  27.8698522  39.3726968  28.9034765  28.3935608  38.4174217  28.9392265
  26.8375410  39.2327395  29.2241718  27.8898522  39.9046968  27.4904765
  27.4587761  40.9049881  27.4493486  28.9085469  39.9324497  27.1037039
  27.0558522  38.9606968  26.6484765  27.5173531  37.9732172  26.6485749
  26.0525621  38.8923305  27.0689932  26.9728522  39.4806968  25.2224765
  27.9719512  39.7655830  24.8927163  26.5872479  38.6940979  24.5738851
  26.0948522  40.6346968  25.1574765  26.4688522  41.3786968  25.7774765
  26.0498522  40.9876968  24.1804765  25.1418522  40.3656968  25.4754765
  27.6818522  41.5296968  30.1594765  28.1198522  42.6366968  29.8214765
  26.5188522  41.3706968  30.8194765  26.2528522  40.4486968  31.0314765
  25.5978522  42.4336968  31.2294765  25.1358626  42.8807411  30.3492400
  24.5208522  41.8856968  32.1074765  24.8277727  40.8899183  32.4273581
  24.4383370  42.5369363  32.9776364  23.1948522  41.8016968  31.4204765
  22.7079891  42.7762730  31.4560617  23.3168005  41.4947632  30.3817164
  22.3038522  40.7856968  32.1274765  22.3818522  39.6016968  31.8234765
  21.4248522  41.1356968  33.0574765  20.8988522  40.4326968  33.5004765
  21.3328522  42.0876968  33.2744765  26.2528522  43.5666968  32.0084765
  26.0498522  44.7506968  31.7324765  27.0248522  43.1986968  33.0174765
  27.1048522  42.2486968  33.2494765  27.7528522  44.1696968  33.7874765
  27.0719367  44.9193688  34.1905213  28.4538522  43.4796968  34.9434765
  27.6018491  43.2214102  35.5723469  28.9604942  42.5680959  34.6266204
  29.4098522  44.3386968  35.7234765  30.1348457  44.8027154  35.0547672
  28.5898522  45.4316968  36.4274765  27.8649039  44.9684257  37.0967512
  29.2570734  46.0730824  37.0032727  28.0652650  46.0297632  35.6823421
  30.2728522  43.4596968  36.6244765  30.8367204  42.7550335  36.0132468
  30.9646825  44.0853036  37.1884696  29.6343881  42.9100748  37.3161254
  28.7828522  44.8846968  32.9324765  28.9508522  46.0856968  33.0884765
  29.5338522  44.2086968  32.0684765  29.4238522  43.2376968  31.9784765
  30.5298522  44.8966968  31.2604765  31.1715321  45.5184924  31.8847492
  31.3838522  43.8636968  30.5704765  30.7044791  43.1541526  30.0981435
  31.9605510  44.3798217  29.8029260  32.3238522  43.1226968  31.4934765
  31.7772910  42.7677167  32.3671817  32.9078522  41.9526968  30.7604765
  33.4549944  42.3069429  29.8868381  33.5874117  41.4126635  31.4197668
  32.1063872  41.2865527  30.4410922  33.4408522  44.0456968  31.9514765
  33.0147966  44.8966194  32.4829900  34.1125227  43.5021823  32.6159703
  33.9975597  44.4012648  31.0844429  29.8808522  45.8316968  30.2434765
  30.3588522  46.9496968  30.0034765  28.7578522  45.4166968  29.6564765
  28.4168522  44.5266968  29.8764765  28.0628522  46.2546968  28.6994765
  28.7128515  46.4877912  27.8561099  26.8538522  45.5246968  28.1864765
  26.3264237  44.9672670  28.9605504  26.1504153  46.1713420  27.6619515
  27.4748522  44.5606968  27.2084765  27.8518916  45.1714975  26.3881932
  28.3102253  44.0754368  27.7132277  26.5408522  43.5136968  26.6654765
  25.9868522  42.7516968  27.4624765  26.3948522  43.4616968  25.4404765
  27.6598522  47.5706968  29.3184765  28.0788522  48.6116968  28.8164765
  26.9808522  47.5246968  30.4634765  26.7498522  46.6476968  30.8434765
  26.5398522  48.7236968  31.1444765  25.8574606  49.3004527  30.5201421
  25.8018522  48.2996968  32.4104765  25.2003876  47.4235009  32.1683602
  26.5485544  48.0319029  33.1580207  24.9008522  49.3966968  32.9634765
  24.4415018  48.9931016  33.8658118  25.5541211  50.2277164  33.2294618
  23.8138522  49.8886968  32.0174765  24.2689316  50.2947867  31.1140979
  23.1556915  49.0614417  31.7518206  23.0038522  50.9796968  32.7134765
  22.4105067  50.4974113  33.4902920  23.7088027  51.6725184  33.1729786
  22.1208522  51.7116968  31.8114765  21.4478522  51.0506968  31.3734765
  21.6008522  52.4356968  32.3464765  22.6888522  52.1686968  31.0684765
  27.7168522  49.6466968  31.4424765  27.6258522  50.8216968  31.0894765
  28.8448522  49.1866968  31.9854765  28.8778522  48.2346968  32.2284765
  30.0358522  50.0166968  32.1984765  29.8371504  50.8883116  32.8220984
  31.1548522  49.1706968  32.8394765  31.3166616  48.2803626  32.2318391
  32.4558522  49.9726968  32.9254765  32.2949414  50.8630085  33.5333855
  33.2326783  49.3582106  33.3805025  32.7676562  50.2687645  31.9238671
  30.6928522  48.6866968  34.1664765  30.3770335  49.5506032  34.7513054
  29.8414356  48.0247513  34.0083074  31.7848522  47.9376968  34.9174765
  32.6364770  48.5991853  35.0764360  31.4001972  47.6035155  35.8810441
  32.1008809  47.0733341  34.3334363  30.5578522  50.6186968  30.8834765
  30.7948522  51.8226968  30.8154765  30.7718522  49.8626968  29.8224765
  30.5778522  48.9046968  29.8974765  31.2468522  50.3806968  28.5374765
  32.2377719  50.8206903  28.6496503  31.3148522  49.2066968  27.5304765
  30.3493739  48.7010304  27.5145581  31.6428522  49.7046968  26.1484765
  32.6084778  50.2101095  26.1635029  31.6851634  48.8619022  25.4585432
  30.8727841  50.4032319  25.8211496  32.3798522  48.2196968  27.9614765
  33.3646897  48.5543936  27.6356331  32.3763623  48.1035127  29.0452609
  32.0488522  46.8536968  27.2924765  32.0526154  46.9689902  26.2085977
  32.7975452  46.1161112  27.5814842  31.0642863  46.5181104  27.6182240
  30.3348522  51.4946968  27.9934765  30.7648522  52.5436968  27.4844765
  29.0468522  51.2386968  28.1124765  28.8048522  50.3886968  28.5344765
  27.9988522  52.1256968  27.6594765  28.0615728  52.3515433  26.5949772
  26.7698522  51.3666968  27.9054765  27.0023899  50.3990520  27.4608541
  26.7674022  51.2757051  28.9916692  25.4398522  51.8116968  27.4464765
  25.1541722  52.7232272  27.9714527  25.3964351  51.9836371  26.3709995
  24.4868522  50.6966968  27.8174765  24.0128522  50.7106968  28.9534765
  24.2558522  49.8116968  26.9874765  28.0498522  53.4426968  28.4114765
  28.3528522  54.4646968  27.8004765  27.8608522  53.3996968  29.7464765
  27.7638522  52.5046968  30.1374765  27.8208522  54.5326968  30.6634765
  26.9991894  55.1904519  30.3800552  27.6148522  54.0896968  32.1164765
  28.5262584  53.5440684  32.3608690  27.5888898  55.0230334  32.6788898
  26.4098522  53.2476968  32.4804765  26.4870411  52.3045808  31.9394820
  26.5540327  53.0677202  33.5458025  25.0328522  53.8526968  32.2504765
  24.6028522  53.9636968  31.1104765  24.3538522  54.1616968  33.2194765
  29.0628522  55.3896968  30.6744765  29.0488522  56.5986968  30.9654765
  30.1768522  54.7426968  30.4104765  30.1668522  53.7666968  30.2854765
  31.4278522  55.4546968  30.3794765  31.2966725  56.4641086  30.7693210
  32.4348522  54.7406968  31.2284765  32.5466701  53.6895413  30.9626418
  33.3912596  55.2493135  31.1072576  32.0198522  54.8306968  32.6814765
  31.9488522  55.9176968  33.2724765  31.6818522  53.6716968  33.2294765
  31.4168522  53.6376968  34.1724765  31.7148522  52.8776968  32.6524765
  31.9908522  55.6216968  28.9984765  33.0948522  56.1456968  28.8604765
  31.2918522  55.1756968  27.9554765  30.4698522  54.6666968  28.1194765
  31.7388522  55.3036968  26.5854765  31.0055119  54.8371295  25.9277333
  31.9078522  56.7676968  26.1694765  32.5188352  57.2557199  26.9288397
  32.4157891  56.8198704  25.2064717  30.6458522  57.5876968  26.0374765
  30.5918522  58.9136968  26.0774765  31.2718522  59.5146968  26.4644765
  29.3428522  59.2376968  25.8924765  29.0545236  60.2885836  25.8679321
  28.6258522  58.1396968  25.7464765  27.6568522  58.1196968  25.6074765
  29.3838522  57.0856968  25.8304765  28.9495875  56.0919549  25.7209661
  33.0778522  54.6226968  26.4024765  33.8608522  55.0336968  25.5384765
  33.3848522  53.5686968  27.1444765  32.7378522  53.1706968  27.7614765
  34.6838522  52.9476968  27.0104765  35.4782310  53.6895036  27.0928425
  34.8718522  51.9186968  28.0944765  34.3067031  51.0217962  27.8409492
  36.3438522  51.5686968  28.2264765  36.9096231  52.4650735  28.4804680
  36.4717720  50.8241326  29.0121989  36.7080884  51.1653408  27.2816291
  34.3758522  52.4616968  29.3124765  34.9118522  53.2446968  29.5134765
  34.8818522  52.2826968  25.6504765  33.9918522  51.6016968  25.1414765
  35.9768522  52.5926968  24.9604765  36.5538522  53.3036968  25.3134765
  36.3618522  51.8956968  23.7354765  35.4578012  51.5269496  23.2508978
  37.1228522  52.7886968  22.7414765  37.5429010  53.5961687  23.3411826
  37.9299171  52.1671365  22.3536502  36.3298522  53.3796968  21.5754765
  37.0632836  53.7295959  20.8490125  35.7557443  52.5591923  21.1450411
  35.3788522  54.5346968  21.9414765  34.7046930  54.6644337  21.0948498
  34.8098161  54.2070159  22.8114894  36.0678522  55.8676968  22.2544765
  35.3134246  56.6034441  22.5330719  36.7569932  55.7218571  23.0862906
  36.8048522  56.3446968  21.0914765  36.1498522  56.4696968  20.2934765
  37.2548522  57.2546968  21.3154765  37.5368522  55.6506968  20.8374765
  37.3198522  50.8126968  24.2184765  38.1078522  51.0636968  25.1384765
  37.3148522  49.6086968  23.6434765  36.2918522  49.1236968  22.7134765
  35.9039214  49.9389200  22.1027221  35.4703322  48.6508544  23.2516437
  37.0998522  48.1336968  21.9124765  37.7158676  48.6371420  21.1673812
  36.4556883  47.4059648  21.4189581  37.9488522  47.4706968  22.9744765
  38.8643700  47.0432760  22.5655294  37.3776318  46.6907286  23.4779212
  38.2858522  48.5656968  23.9444765  38.0709811  48.2066782  24.9509725
  39.7328522  49.0256968  23.8694765  40.4958522  48.6856968  24.7554765
  40.1728522  49.8476968  22.9084765  39.5658522  50.1466968  22.2064765
  41.5568522  50.2866968  22.8894765  42.2174371  49.4578645  23.1439641
  41.9238522  50.7946968  21.4794765  43.0114284  50.7226099  21.4884679
  41.5135687  50.0112527  20.8423086  41.5008522  52.1876968  20.9264765
  41.7194313  52.8699368  21.7479828  42.1854105  52.3827207  20.1009797
  40.0598522  52.4016968  20.4554765  39.2208522  51.4896968  20.5584765
  39.7958522  53.5046968  19.9644765  41.8308522  51.3546968  23.9314765
  42.9218522  51.8996968  24.0074765  40.8468522  51.7576968  24.7304765
  39.9608522  51.3606968  24.6804765  41.1528522  52.6706968  25.8154765
  42.0732221  53.2135115  25.6001379  40.0128522  53.6846968  25.9814765
  39.0630435  53.1514017  25.9419930  40.1069749  54.1873507  26.9440667
  40.0618522  54.7186968  24.8614765  41.1668522  55.0536968  24.4054765
  38.9918522  55.1896968  24.4614765  41.3998522  51.9356968  27.1114765
  41.9508522  52.4766968  28.0794765  40.9918522  50.6786968  27.1154765
  40.7838522  50.2266968  26.2724765  41.1418522  49.8446968  28.2854765
  40.8143025  50.4016225  29.1633398  40.2498522  48.6066968  28.1294765
  40.6604779  47.9897463  27.3301906  40.1758522  47.7946968  29.4064765
  39.7648609  48.4108827  30.2061651  39.5337608  46.9279342  29.2498184
  41.1756243  47.4602724  29.6834561  38.8618522  49.0836968  27.8134765
  38.8768939  49.6596879  26.8882144  38.2001490  48.2255425  27.6959191
  38.4993461  49.7126744  28.6265430  42.6128522  49.4736968  28.4064765
  43.2918522  49.1346968  27.4594765  43.1458522  49.6036968  29.5994765
  42.5888522  49.9666968  30.3114765  44.5268522  49.2866968  29.8664765
  45.2058911  49.4736110  29.0345700  44.9598522  50.1636968  31.0644765
  44.2233326  50.0613752  31.8614510  46.3258522  49.7336968  31.5784765
  47.0630392  49.8361865  30.7821397  46.6121631  50.3630316  32.4211296
  46.2823290  48.6933857  31.9009051  44.9438522  51.6386968  30.6364765
  43.9372174  51.9158252  30.3234457  45.2480249  52.2643628  31.4755955
  45.6349424  51.7841555  29.8062133  44.6588522  47.7946968  30.1634765
  45.6908522  47.1476968  29.8994765  43.6268522  47.3006968  30.8604765
  42.8478522  47.8746968  31.0334765  43.5608522  45.9546968  31.3854765
  43.5647568  45.2539321  30.5506035  44.7378522  45.6206968  32.3114765
  44.5908736  44.6089502  32.6894519  45.6519698  45.6573998  31.7189041
  44.8538522  46.5946968  33.4904765  45.0642163  47.5971848  33.1178298
  43.8950138  46.5941137  34.0088687  45.9278522  46.2106968  34.4674765
  45.6848522  45.7776968  35.5954765  47.1658522  46.3286968  34.0584765
  47.8548522  46.1146968  34.7174765  47.3668522  46.6366968  33.1554765
  42.2938522  45.9196968  32.2204765  41.6468522  46.9556968  32.4684765
  41.9978522  44.7276968  32.7254765  42.5628522  43.9436968  32.5344765
  40.8318522  44.5036968  33.5254765  40.5279933  45.3969115  34.0713120
  39.7608522  44.1466968  32.5694765  39.8434574  44.8183708  31.7150002
  39.9372252  43.1216222  32.2435705  38.4038522  44.2526968  33.1504765
  38.3001686  43.5976919  34.0155309  38.1872282  45.2795823  33.4448947
  37.2358522  43.7426968  31.8784765  37.4618522  45.1606968  30.8594765
  38.5050545  45.2237390  30.5498738  36.8259662  45.0802765  29.9778404
  37.1946424  46.0571559  31.4189952  41.1548522  43.3766968  34.4924765
  41.9288522  42.4656968  34.1674765  40.6148522  43.4306968  35.7024765
  40.0608522  44.2016968  35.9424765  40.7218522  42.3436968  36.6484765
  41.2220222  41.5058622  36.1627168  41.5018522  42.7206968  37.8824765
  40.8831883  43.4950172  38.3361084  41.4854275  41.8293913  38.5096964
  42.9268522  43.2226968  37.7554765  42.9662774  44.0114153  37.0041645
  43.3948522  43.7666968  39.0784765  43.3561451  42.9783768  39.8302425
  44.4193382  44.1262169  38.9821718  42.7484848  44.5900277  39.3825090
  43.8078522  42.0996968  37.3084765  43.4638996  41.7297188  36.3426026
  44.8335885  42.4566294  37.2159265  43.7690180  41.2931815  38.0406814
  39.2708522  42.0736968  37.0524765  38.4188522  42.9786968  37.1104765
  38.9548522  40.8056968  37.2584765  39.6608522  40.1196968  37.2134765
  37.6398522  40.3966968  37.6594765  37.0303936  41.2694279  37.8939966
  36.9738522  39.6286968  36.5314765  37.6592797  38.9178335  36.0699986
  36.1818488  39.0862031  37.0477431  36.3628522  40.5156968  35.4554765
  36.7175939  41.5364950  35.5977093  36.7478522  40.0416968  34.0984765
  36.3930244  39.0210582  33.9553230  36.2999171  40.6904682  33.3457810
  37.8330271  40.0658676  33.9989189  34.8638522  40.3976968  35.4554765
  34.4747457  40.7042375  36.4264184  34.4483258  41.0398632  34.6789063
  34.5803012  39.3633285  35.2611054  37.9138522  39.5116968  38.8554765
  38.9048522  38.7696968  38.8744765  37.1188522  39.6386968  39.9184765
  36.3898522  40.2976968  39.9074765  37.2428522  38.7936968  41.0894765
  38.0356849  38.0640252  40.9248708  37.5848522  39.6176968  42.3474765
  37.8855470  38.8790201  43.0904695  38.4492222  40.2167718  42.0609914
  36.5828522  40.4646968  42.8994765  35.8108522  39.9836968  43.2364765
  35.8838522  38.1446968  41.2474765  34.8318522  38.6026968  40.7594765
  35.9288522  37.0286968  41.9384765  36.7798522  36.6866968  42.2884765
  34.7298522  36.2896968  42.2484765  33.8153582  36.8806112  42.1972903
  34.5868522  35.0966968  41.3284765  35.4913593  34.4902869  41.3757423
  33.7314861  34.4972981  41.6401981  34.4345661  35.4419922  40.3058919
  34.8928522  35.8086968  43.6714765  36.0058522  35.5456968  44.1664765
  33.7748522  35.8066968  44.3824765  32.9588522  36.1806968  43.9854765
  33.7078522  35.2606968  45.7504765  34.4216356  35.7148580  46.4377538
  32.2838522  35.4816968  46.3014765  32.0953050  34.7133331  47.0512548
  32.0948522  36.8596968  46.9274765  32.2827902  37.6286273  46.1781269
  31.0736615  36.9546927  47.2965895  32.7928514  36.9819218  47.7557027
  31.3838522  35.2546968  45.2024765  31.7228522  34.5126968  44.6764765
  34.0298522  33.7576968  45.7254765  33.6738522  33.1046968  44.7264765
  34.5928522  33.0976968  46.7484765  34.9938522  33.7116968  48.0194765
  34.1972194  34.3573826  48.3890252  35.9013670  34.2990001  47.8795096
  35.2178522  32.5096968  48.8974765  34.2809596  32.1067788  49.2821690
  35.8853478  32.7335856  49.7295972  35.8608522  31.5696968  47.9384765
  35.9127545  30.5209948  48.2311014  36.8695588  31.9557101  47.7914920
  35.0598522  31.7086968  46.6534765  35.7840038  31.7242971  45.8389463
  34.0458522  30.5836968  46.4134765  34.3668522  29.3916968  46.4664765
  32.8258522  30.9486968  46.0464765  32.6808522  31.8756968  45.8034765
  31.7008522  30.0656968  45.8764765  31.9433486  29.0626256  46.2273939
  30.5248522  30.6006968  46.6984765  29.6661447  30.0241758  46.3544647
  30.7397771  30.3471069  47.7365514  30.2118522  32.0906968  46.5934765
  30.7068522  32.7776968  45.7234765  29.4688522  32.5976968  47.4094765
  31.3188522  29.9716968  44.4204765  30.1948522  29.5876968  44.0834765
  32.2198522  30.3536968  43.5214765  33.1118522  30.6576968  43.8004765
  31.9348522  30.3206968  42.0974765  30.9942131  29.8004693  41.9167541
  31.8168522  31.7546968  41.5504765  32.7885057  32.1768575  41.8069312
  31.7181485  31.7038142  40.4661478  30.7138522  32.6376968  42.1194765
  30.7474947  32.5828246  43.2075748  30.8898522  34.0656968  41.6844765
  30.8558562  34.1214364  40.5964341  30.0895464  34.6751757  42.1041750
  31.8519644  34.4374740  42.0369284  29.3848522  32.0536968  41.6994765
  29.2935711  31.0397721  42.0889940  28.5761112  32.6683788  42.0947044
  29.3249226  32.0311089  40.6113601  33.1528522  29.5986968  41.5324765
  34.3008522  29.9466968  41.7954765  32.9118522  28.4696968  40.8754765
  31.9928522  28.1446968  40.7984765  33.9798522  27.6376968  40.3474765
  34.8742452  28.2477399  40.2209544  34.3158522  26.4586968  41.2824765
  33.5155748  25.7222862  41.2093007  35.2491058  26.0161295  40.9342353
  34.5028522  26.7586968  42.7814765  35.5898522  27.1786968  43.4074765
  36.4268522  27.4856968  43.0034765  35.3158522  27.2916968  44.6754765
  36.0885237  27.6037383  45.3781199  34.0568522  26.9496968  44.8694765
  33.6328522  26.9856968  45.7644765  33.5168522  26.6166968  43.7374765
  32.4810161  26.2788073  43.7062440  33.5218522  27.0616968  39.0204765
  34.2188522  26.2496968  38.4214765  32.3868522  27.4756968  38.4764765
  31.8818522  28.1876968  38.9044765  31.9078522  26.9376968  37.2114765
  31.9237482  25.8490871  37.2641603  30.4748522  27.3926968  36.9184765
  30.4445037  28.4803490  36.8537333  30.1429671  26.9635609  35.9730692
  29.8159293  27.0584148  37.7198349  32.7638522  27.3916968  36.0364765
  33.1078522  26.6046968  35.1424765  33.1398522  28.6796968  36.0394765
  32.9528522  29.2716968  36.7954765  33.9058522  29.2486968  34.9444765
  34.7173975  28.6199399  34.5782003  32.9088522  29.5046968  33.7764765
  32.3693416  28.5865419  33.5440563  31.9268522  30.5726968  34.1964765
  32.4656186  31.4913569  34.4286300  31.2235635  30.7597364  33.3849953
  31.3816986  30.2388237  35.0793343  33.6438522  29.8736968  32.5004765
  34.3109829  29.0598146  32.2165143  32.9223122  30.0467452  31.7020193
  34.2267561  30.7798543  32.6654083  34.6168522  30.5146968  35.4124765
  34.2848522  31.0566968  36.4674765  35.6368522  30.9266968  34.6524765
  35.8708522  30.3886968  33.8684765  36.3668522  32.1706968  34.8504765
  36.5371246  32.3164367  35.9171847  37.7318522  32.1636968  34.1294765
  37.5735849  31.7630849  33.1281969  38.1167831  33.1808601  34.0566276
  38.8408522  31.3196968  34.7694765  39.4888522  31.7656968  35.9304765
  39.1964300  32.7002929  36.4091404  40.5158522  30.9996968  36.4704765
  41.0181107  31.3498215  37.3722801  40.9058522  29.8006968  35.8764765
  41.7131481  29.2075659  36.3060916  40.2568522  29.3626968  34.7274765
  40.5585727  28.4252803  34.2602342  39.2288522  30.1136968  34.1754765
  38.7209335  29.7646224  33.2764406  35.4948522  33.2556968  34.2114765
  35.1858522  33.1256968  33.0134765  35.0838522  34.3446968  34.8944765
  35.4358522  34.6776968  36.2744765  36.3404788  35.2853938  36.2958166
  35.5966874  33.7672383  36.8517948  34.2098522  35.4426968  36.7314765
  34.4158323  36.0580248  37.6072862  33.3713809  34.7792154  36.9432773
  33.9328522  36.2866968  35.5214765  34.5898200  37.1564212  35.5130041
  32.8943765  36.6160952  35.4873521  34.2348522  35.3996968  34.3254765
  33.3099873  34.9393531  33.9779036  34.9158522  36.1276968  33.1544765
  34.2398522  36.6866968  32.2924765  36.2548522  36.1266968  33.0504765
  36.7848522  35.7196968  33.7634765  36.9548522  36.7486968  31.9424765
  36.7483806  37.8181628  31.9838409  38.4438522  36.5406968  32.0564765
  38.6671634  35.4749417  32.0075044  38.9468109  37.0547891  31.2374271
  38.7955418  36.9417771  33.0070280  36.5368522  36.2206968  30.5944765
  36.5648522  36.9416968  29.5994765  36.0668522  34.9816968  30.5344765
  36.0458522  34.4206968  31.3384765  35.5788522  34.4256968  29.2974765
  36.3385654  34.4579583  28.5165192  35.2228522  32.9506968  29.5784765
  36.1109559  32.5295007  30.0496081  34.4104570  32.9884296  30.3042107
  34.8128522  32.0816968  28.4064765  33.9241432  32.4962242  27.9305941
  35.6238859  32.0323589  27.6799145  34.5048522  30.6736968  28.9234765
  35.4114443  30.2706826  29.3748846  33.7258840  30.7521190  29.6818681
  34.0348522  29.7416968  27.8044765  33.1607575  30.1754871  27.3187966
  34.8382697  29.6331926  27.0758844  33.6908522  28.4356968  28.3444765
  34.5268522  28.0236968  28.8064765  32.9268522  28.5446968  29.0414765
  33.3728522  27.8116968  27.5764765  34.3928522  35.2326968  28.7744765
  34.2078522  35.2566968  27.5554765  33.5918522  35.9546968  29.5954765
  33.7578522  35.9496968  30.5604765  32.4728522  36.7516968  29.0734765
  31.8440047  36.1130854  28.4531334  31.6238522  37.3456968  30.1694765
  32.2376736  37.9949694  30.7937909  30.8140645  37.9266318  29.7280486
  31.2053860  36.5453761  30.7797813  32.9768522  37.9216968  28.2424765
  32.3198522  38.3796968  27.3064765  34.2138522  38.3596968  28.4994765
  34.7578522  37.8826968  29.1604765  34.8008522  39.4856968  27.7874765
  34.1742785  40.3706221  27.8988848  36.1988522  39.7906968  28.3824765
  36.8572586  38.9393881  28.2096359  36.7908522  41.0396968  27.7124765
  36.1331846  41.8915831  27.8852882  37.7735313  41.2483004  28.1354739
  36.8865356  40.8667905  26.6405391  36.0738522  40.0436968  29.8784765
  35.6593096  39.1599819  30.3635584  37.0581799  40.2579670  30.2947539
  35.4144381  40.8945425  30.0497525  34.8878522  39.1646968  26.3024765
  34.6118522  40.0036968  25.4374765  35.1478522  37.8896968  26.0244765
  35.2408522  37.2496968  26.7604765  35.2528522  37.4056968  24.6674765
  35.9725054  38.0015263  24.1060624  35.7338522  35.9396968  24.6854765
  35.2020161  35.4336014  25.4911544  35.4542252  35.4947342  23.7305330
  37.2578522  35.7866968  24.8984765  37.5828764  35.0132176  24.2026388
  37.6991666  36.7412642  24.6118675  37.7108522  35.4196968  26.3194765
  38.7905837  35.5517768  26.3890019  37.2186617  36.0670821  27.0452452
  37.3878522  34.0306968  26.6364765  36.4468522  33.7746968  26.7254765
  38.3258522  33.0916968  26.7964765  39.6228522  33.3696968  26.6804765
  39.9238522  34.2996968  26.4694765  40.2988522  32.6436968  26.8074765
  37.9658522  31.8416968  27.0694765  36.9978522  31.6096968  27.1554765
  38.6628522  31.1356968  27.1924765  33.9268522  37.5276968  23.9304765
  33.8898522  37.6246968  22.7024765  32.8138522  37.5926968  24.6504765
  32.8698522  37.6016968  25.6254765  31.5168522  37.7276968  24.0204765
  31.4533346  37.0953551  23.1349209  30.4428522  37.2936968  25.0054765
  30.5231686  37.8935604  25.9120150  29.4612305  37.4446381  24.5563266
  30.6208522  35.8186968  25.3544765  30.4875500  35.2794911  24.4166126
  31.6590562  35.7361220  25.6760556  29.7108522  35.2186968  26.4184765
  28.7328522  35.8426968  26.8374765  29.9938522  34.0896968  26.8224765
  31.2468522  39.1536968  23.5524765  30.1828522  39.4416968  22.9794765
  32.1848522  40.0726968  23.7544765  33.0598522  39.8226968  24.1204765
  31.9918522  41.4596968  23.3974765  30.9527466  41.6609394  23.1369767
  32.3598522  42.2986968  24.6144765  33.4066987  42.0492560  24.7876556
  32.2816692  43.3407425  24.3044312  31.5678522  42.0906968  25.9024765
  31.5152364  41.0256451  26.1283025  32.2528522  42.8136968  27.0404765
  32.3054306  43.8789434  26.8155676  31.6864476  42.6644902  27.9597283
  33.2611059  42.4195113  27.1675303  30.1488522  42.5956968  25.7144765
  29.6715260  42.0460593  24.9032073  29.5845838  42.4464814  26.6350400
  30.1699973  43.6577116  25.4699845  32.8438522  41.8136968  22.1884765
  34.0688522  41.6456968  22.1864765  32.2128522  42.3056968  21.1284765
  31.2438522  42.4216968  21.1654765  32.9158522  42.6476968  19.9104765
  33.4434699  41.7833583  19.5071926  31.8958522  43.1056968  18.8974765
  31.3434544  43.9583966  19.2922661  32.3989061  43.3949943  17.9747936
  30.9958522  42.0416968  18.6314765  30.4948522  41.7386968  19.4034765
  34.0188522  43.6926968  20.0184765  33.7998522  44.8446968  20.3914765
  35.2328522  43.2476968  19.7174765  35.3598522  42.2886968  19.5644765
  36.3888522  44.1236968  19.6774765  37.0240856  43.8256937  18.8433470
  36.0462759  45.1471738  19.5250444  37.1898522  44.0596968  20.9504765
  38.2798522  44.6476968  21.0784765  36.6918522  43.2676968  21.8984765
  35.8588522  42.7656968  21.7564765  37.3428522  43.1406968  23.1794765
  37.9240123  44.0301252  23.4229293  36.2418522  42.9766968  24.2234765
  35.4580972  42.3505873  23.7970797  36.5295043  42.5840494  25.1987633
  35.6258522  44.3326968  24.4684765  34.8308522  44.9236968  23.5264765
  34.5664421  44.4224607  22.5953753  34.5818522  46.1096968  23.9964765
  34.0028522  46.7576968  23.5424765  35.1688522  46.2806968  25.1884765
  35.1538522  47.3916968  26.0174765  34.5931550  48.2632710  25.6797256
  35.8528522  47.3316968  27.2294765  35.8616538  48.1885958  27.9030836
  36.5468522  46.1786968  27.5934765  37.0920001  46.1210574  28.5355969
  36.5628522  45.0646968  26.7604765  37.1256431  44.1863981  27.0766388
  35.8678522  45.1276968  25.5514765  38.3528522  42.0026968  23.2134765
  38.7848522  41.5766968  24.2794765  38.8508522  41.6146968  22.0364765
  38.6158522  42.1266968  21.2404765  39.7448522  40.4916968  21.8954765
  39.4309055  39.6569572  22.5221714  39.7038522  40.0466968  20.4314765
  38.6547011  39.9661513  20.1470586  40.1805267  40.8297609  19.8418223
  40.4008522  38.7236968  20.1724765  41.4761641  38.8779629  20.0829934
  40.1967775  38.0781855  21.0267427  39.9028522  38.0346968  18.9134765
  38.9418522  37.2586968  18.9484765  40.4908522  38.3006968  17.7504765
  40.1578522  37.8466968  16.9524765  41.2288522  38.9416968  17.7354765
  41.1678522  40.7356968  22.3474765  41.8778522  39.7636968  22.6024765
  41.6898522  41.9456968  22.4814765  41.1778522  42.7576968  22.2814765
  43.0818522  42.0566968  22.9354765  43.4916211  41.0650458  23.1273541
  43.9298522  42.7356968  21.8644765  43.7098717  43.8023142  21.9095890
  44.9789880  42.5709210  22.1099620  43.6518522  42.2216968  20.4664765
  44.1368522  40.9856968  20.0164765  44.7260639  40.3422606  20.6698668
  43.8538522  40.5816968  18.7054765  44.2420168  39.6384085  18.3212404
  43.0968522  41.4136968  17.8784765  42.7648522  41.0356968  16.5824765
  42.5088522  41.8226968  16.0904765  42.6218522  42.6346968  18.3374765
  42.0326586  43.2735925  17.6796288  42.8978522  43.0416968  19.6354765
  42.5238397  43.9993706  19.9975201  43.2768522  42.7996968  24.2534765
  44.4078522  43.1076968  24.6814765  42.1368522  43.0526968  24.9084765
  41.3018522  42.6826968  24.5624765  42.1238522  43.6826968  26.2254765
  42.7521264  44.5732159  26.2068610  40.6768522  44.1046968  26.5894765
  40.0091975  43.2500503  26.4803168  40.6418522  44.5896968  28.0144765
  41.3089591  45.4446848  28.1243170  39.6254878  44.8869883  28.2727816
  40.9657387  43.7890195  28.6793939  40.1988522  45.2446968  25.6894765
  40.2177194  44.9194506  24.6493029  39.1814175  45.5230047  25.9641963
  40.8561970  46.1054381  25.8124523  42.6538522  42.6496968  27.2324765
  42.0188522  41.6056968  27.3834765  43.7808522  42.8536968  27.9254765
  44.5708522  44.0956968  27.8974765  44.1283258  44.8411344  28.5582286
  44.6176295  44.4920308  26.8831638  45.9088522  43.6116968  28.3864765
  46.5115645  44.4356960  28.7683957  46.4557406  43.0982859  27.5956391
  45.5298522  42.6616968  29.4764765  45.3434711  43.1883764  30.4124090
  46.3074497  41.9134226  29.6298637  44.2548522  41.9926968  28.9984765
  44.4854987  41.0226972  28.5580206  43.2478522  41.8096968  30.1324765
  42.7588522  42.8146968  30.6674765  42.9148522  40.5876968  30.5454765
  43.2738522  39.7946968  30.0864765  42.0428522  40.3436968  31.6984765
  41.8549559  41.3388327  32.1015876  40.7028522  39.6696968  31.4194765
  40.7844855  38.5886292  31.5322951  39.7218522  40.2056968  32.4254765
  39.6393304  41.2867289  32.3129569  38.7461159  39.7483292  32.2616046
  40.0680849  39.9710714  33.4320427  40.1278522  39.9846968  30.0924765
  40.8160777  39.6611179  29.3116151  39.1765617  39.4655736  29.9756131
  39.9668742  41.0597047  30.0115758  42.7088522  39.3276968  32.6174765
  43.5038522  38.5366968  32.1164765  42.4858522  39.2816968  33.9304765
  42.0508522  40.0416968  34.3754765  42.8858522  38.1476968  34.7324765
  42.6770817  37.2347048  34.1748388  44.4348522  38.2236968  35.0124765
  44.8250556  38.7988203  34.1727893  44.9378522  38.8056968  36.2894765
  44.5484160  38.2307781  37.1296595  46.0272691  38.7718280  36.3005654
  44.6061635  39.8406221  36.3732182  44.7888522  36.8476968  35.0044765
  45.7498522  36.7656968  34.9754765  41.9968522  38.2016968  35.9674765
  41.3768522  39.2286968  36.2814765  41.8568522  37.0576968  36.6414765
  42.4688522  36.3136968  36.4724765  40.9358522  36.9586968  37.7544765
  40.3994485  37.8985827  37.8848018  39.9128522  35.8426968  37.4804765
  40.3961687  34.8670703  37.5320270  39.1035687  35.8856471  38.2093903
  39.1298522  35.9276968  35.8584765  38.3647337  34.8514066  36.0168790
  41.6368522  36.6906968  39.0714765  42.7928522  36.2526968  39.1254765
  40.9528522  36.9826968  40.1564765  40.0838522  37.4376968  40.1064765
  41.4898522  36.6366968  41.4474765  42.1402631  35.7668725  41.3554404
  42.3038522  37.7966968  42.0174765  42.8482197  37.3651260  42.8574229
  43.0058812  38.0565428  41.2251789  41.5848522  39.0276968  42.4694765
  40.6380759  38.7413145  42.9274072  42.1984447  39.5517782  43.2022417
  41.2638522  40.1146968  41.0864765  42.0178522  41.5146968  41.8494765
  43.0638394  41.2938312  42.0621456  41.9571230  42.3714999  41.1784318
  41.4992382  41.7452101  42.7800700  40.3708522  36.2706968  42.4034765
  39.1878522  36.5416968  42.1794765  40.6968522  35.6376968  43.5034765
  41.6348522  35.4776968  43.7194765  39.6638522  35.2246968  44.4354765
  38.7696670  34.9217293  43.8907356  40.1468522  34.0536968  45.2604765
  40.8526409  33.5101418  44.6323765  40.6743063  34.4802100  46.1136931
  39.0768522  33.1056968  45.7524765  38.9105083  33.1937571  46.8261039
  38.1376439  33.2721723  45.2249580  39.5598522  31.6996968  45.4504765
  38.9518522  30.9766968  44.6484765  40.6598522  31.2216968  46.0334765
  40.9678522  30.3256968  45.7884765  41.1168522  31.7936968  46.6944765
  39.4398522  36.4166968  45.3244765  40.3978522  36.9896968  45.8404765
  38.1958522  36.8416968  45.4694765  37.4778522  36.3526968  45.0244765
  37.8708522  37.9126968  46.3814765  38.5406166  38.7578206  46.2224776
  36.4428522  38.3736968  46.1444765  36.4633243  38.8655198  45.1719590
  35.8585105  37.4562039  46.0748231  35.7988522  39.3156968  47.1834765
  34.7470331  39.3929991  46.9081554  35.8894733  38.7626847  48.1183907
  36.3838522  40.7196968  47.3624765  36.0008522  41.6286968  46.6684765
  37.2158522  40.9336968  48.2264765  38.0198522  37.2766968  47.7464765
  37.6978522  36.1006968  47.9584765  38.5438522  38.0236968  48.6994765
  38.7378522  38.9566968  48.4954765  38.6938522  37.5046968  50.0494765
  39.2908701  36.5927436  50.0462706  39.4018522  38.5446968  50.8974765
  39.6372094  38.0429216  51.8360541  40.3259438  38.7725400  50.3662117
  38.6678522  39.8096968  51.1814765  38.3836979  40.3085931  50.2549455
  37.7758372  39.6142616  51.7766373  39.7828522  40.8826968  52.1164765
  39.4978522  40.0926968  53.6744765  39.7865987  39.0436959  53.6087364
  40.0906857  40.5845470  54.4456654  38.4405054  40.1626421  53.9298713
  37.3388522  37.1446968  50.6484765  36.3298522  37.8086968  50.3954765
  37.3048522  36.0586968  51.4014765  38.1318522  35.5596968  51.5634765
  36.0858522  35.5856968  52.0034765  35.2247681  35.7729956  51.3619529
  36.2348522  34.0846968  52.1904765  36.4316701  33.6455313  51.2124705
  37.1058531  33.9481704  52.8314274  35.0368522  33.4046968  52.8164765
  33.9048522  33.8736968  52.6744765  35.2568522  32.3726968  53.4374765
  35.8008522  36.2946968  53.3264765  36.4598522  36.0426968  54.3374765
  34.7718522  37.1296968  53.3594765  34.1818522  37.1936968  52.5764765
  34.4698522  37.9426968  54.5124765  35.2770167  37.7676207  55.2237662
  34.4988522  39.4556968  54.0814765  34.2203775  39.4923185  53.0282861
  33.5758522  40.3486968  54.8774765  33.8540187  40.3129541  55.9307793
  33.6587926  41.3732685  54.5148828  32.5479463  40.0049903  54.7618176
  35.8718522  39.9826968  54.4034765  36.6191327  39.4122712  53.8518529
  35.9343856  41.0330486  54.1189588  36.0575209  39.8848638  55.4730823
  33.1278522  37.5336968  55.0494765  32.1538522  37.4046968  54.3014765
  33.1038522  37.3776968  56.3634765  33.9108522  37.6106968  56.8714765
  31.9388522  37.0226968  57.1444765  31.5058073  36.0483594  56.9181185
  32.3538522  37.0406968  58.5954765  32.7538647  38.0317634  58.8096662
  31.2158522  36.7376968  59.5514765  30.8156052  35.7465309  59.3381876
  31.5844063  36.7672135  60.5768524  30.4286119  37.4812997  59.4273480
  33.4378522  36.1116968  58.6794765  33.0998522  35.2266968  58.5104765
  30.8198522  38.0166968  56.8914765  30.8748522  39.1346968  57.3744765
  29.7818522  37.6246968  56.1724765  29.7588522  36.7166968  55.8134765
  28.7168522  38.5486968  55.8344765  27.7870019  37.9945591  55.7063787
  28.5995384  39.2728499  56.6406645  29.0338522  39.2936968  54.5394765
  28.4728522  40.3606968  54.2764765  29.9388522  38.7676968  53.7084765
  30.3678522  37.9216968  53.9264765  30.2408522  39.3846968  52.4334765
  30.3234822  40.4656414  52.5467470  31.1747468  38.9893196  52.0339554
  29.1218522  39.0756968  51.4654765  28.3508522  38.1326968  51.6574765
  28.9248522  39.8406968  50.4034765  29.5328522  40.5796968  50.2124765
  27.8888522  39.4666968  49.4574765  26.9771983  39.2170459  50.0003032
  27.5818522  40.6086968  48.4844765  27.3775336  41.4994723  49.0785068
  28.5126141  40.7453712  47.9339290  26.4438522  40.3816968  47.5054765
  26.7428350  39.5882127  46.8205727  25.1558522  39.9926968  48.1954765
  24.8559687  40.7859523  48.8802497  24.3748445  39.8422993  47.4501522
  25.3069495  39.0690231  48.7541329  26.1908522  41.6796968  46.7964765
  27.0925440  41.9865773  46.2664993  25.3765254  41.5520120  46.0832657
  25.9194409  42.4447428  47.5238962  28.4528522  38.2606968  48.7194765
  29.6408522  38.2006968  48.3544765  27.5338522  37.2896968  48.6554765
  26.6218522  37.4926968  48.9534765  27.7928522  35.9866968  48.0824765
  28.8414848  35.7159354  48.2055912  26.9388522  34.9556968  48.7964765
  25.8928984  35.2591452  48.7517687  27.0570658  33.9880710  48.3088025
  27.3738522  34.8466968  50.2524765  27.3581054  35.8321869  50.7179462
  26.6999587  34.1803228  50.7909143  28.7948522  34.2826968  50.3014765
  28.7265671  33.2254944  50.0450408  29.3709223  34.8048577  49.5375454
  29.4848522  34.4336968  51.6474765  28.8175975  34.1043909  52.4439872
  30.3833176  33.8165597  51.6484933  29.8498522  35.8166968  51.8654765
  30.4598522  36.1406968  51.0884765  28.9848522  36.3896968  51.8864765
  30.3508522  35.9116968  52.7714765  27.5228522  35.9496968  46.5984765
  26.8298522  36.8136968  46.0304765  28.1498522  34.9246968  46.0144765
  28.6498522  34.3226968  46.5934765  28.1598522  34.6676968  44.5804765
  29.0374165  34.0734902  44.3257243  26.9078522  33.9036968  44.1424765
  26.0820636  34.5904643  44.3282797  27.0279002  33.7628207  43.0683059
  26.6138522  32.5796968  44.7914765  27.1982723  31.7651245  44.3636612
  26.7587493  32.6018734  45.8715760  25.1318522  32.3616968  44.4804765
  24.5987264  33.2701032  44.7609647  25.0398933  32.2042001  43.4058427
  24.5418522  31.1906968  45.2094765  24.7377737  31.2706315  46.2787406
  23.4661263  31.1427730  45.0403135  25.1638522  29.9926968  44.6944765
  24.9928522  29.9206968  43.6704765  26.1878522  30.0256968  44.8714765
  24.7588522  29.1636968  45.1734765  28.2328522  35.9746968  43.8074765
  27.3958522  36.3226968  42.9814765  29.2578522  36.7336968  44.0984765
  29.9558522  36.4126968  44.7014765  29.4158522  38.0436968  43.5124765
  28.5943464  38.3092135  42.8470982  29.4058522  38.9956968  44.7024765
  28.3968226  39.1203759  45.0954314  30.0623962  38.6377542  45.4955257
  29.9848522  40.6456968  44.2824765  29.8405535  41.1581018  45.5012944
  30.6538522  38.2026968  42.6074765  31.7728522  37.7486968  42.8814765
  30.5038522  38.8676968  41.4804765  29.6458522  39.3126968  41.3094765
  31.6148522  39.1336968  40.5714765  32.5574786  38.6793715  40.8766703
  31.1878522  38.5616968  39.2104765  30.1606688  38.8687598  39.0137361
  32.0918522  39.0596968  38.0854765  33.1192017  38.7525981  38.2812933
  31.7606834  38.6352516  37.1377032  32.0420057  40.1472952  38.0330927
  31.2028522  37.0336968  39.3354765  32.2354051  36.6870766  39.2931688
  30.7654108  36.7545219  40.2940201  30.4018522  36.3886968  38.2024765
  30.8390075  36.6670590  37.2435658  30.4261266  35.3044048  38.3112002
  29.3690131  36.7345064  38.2444159  31.8318522  40.6546968  40.5834765
  30.8848522  41.4536968  40.6354765  33.0848522  41.0756968  40.5614765
  33.8108522  40.4246968  40.4314765  33.4368522  42.4816968  40.6504765
  32.5428448  43.1001498  40.5706909  34.1058522  42.7596968  42.0014765
  34.8754589  42.0045224  42.1612153  34.5688643  43.7453656  41.9548187
  33.1048522  42.7206968  43.1594765  32.3116816  43.4344859  42.9370215
  32.6863529  41.7151786  43.2029921  33.7248522  43.0596968  44.4774765
  34.7954287  43.2160553  44.3451247  33.2749123  43.9618998  44.8918232
  33.5268522  41.9706968  45.4124765  34.1158522  41.1926968  45.3274765
  32.6228522  41.9406968  46.3854765  31.7878522  42.9366968  46.5824765
  31.8098522  43.7366968  45.9864765  31.1178522  42.8876968  47.3234765
  32.5808522  40.9046968  47.2214765  33.2318522  40.1536968  47.1174765
  31.9018522  40.8826968  47.9544765  34.3868522  42.8066968  39.5224765
  35.1558522  41.9136968  39.1394765  34.3698522  44.0106968  38.9454765
  33.8488522  44.7396968  39.3454765  35.2898522  44.3046968  37.8614765
  35.9564251  43.4431468  37.8225984  34.4698522  44.3726968  36.5054765
  33.5639490  43.7877848  36.6645881  34.0988522  45.7546968  36.0394765
  35.0043202  46.3401015  35.8796954  33.5414812  45.6862678  35.1052626
  33.4816570  46.2401319  36.7954688  35.3798522  43.9096968  35.3924765
  35.7028343  42.8872003  35.5881436  34.8427144  43.9454267  34.4446864
  36.2516695  44.5618518  35.3402346  36.0098522  45.5946968  38.2134765
  35.4158522  46.5276968  38.7484765  37.3148522  45.6256968  38.0204765
  37.7468522  44.8086968  37.6824765  38.1158522  46.8016968  38.2174765
  37.5176015  47.6079418  38.6419340  39.2388522  46.4706968  39.1834765
  38.7410690  46.2433197  40.1261380  39.6939628  45.5637246  38.7855118
  40.3218522  47.5216968  39.4204765  41.1539534  46.9894224  39.8813370
  40.6173217  47.8695294  38.4306218  39.8858522  48.9486968  40.4474765
  39.2668522  49.9316968  39.1344765  38.4319397  49.4181115  38.6577689
  38.9270012  50.8902816  39.5265441  40.0562077  50.0987468  38.4015961
  38.6128522  46.9706968  36.7964765  39.4828522  46.2096968  36.3624765
  38.0578522  47.8646968  35.9804765  37.3528522  48.4326968  36.3444765
  38.4448522  48.0686968  34.5914765  38.9666870  47.1987885  34.1926691
  37.1868522  48.2746968  33.8044765  36.5145728  47.4339035  33.9753749
  36.7055219  49.1963746  34.1314797  37.5068522  48.3696968  32.3404765
  38.3169468  49.0890454  32.2205379  37.8412587  47.3876057  32.0061542
  36.1038522  48.8876968  31.3424765  34.9418522  47.5836968  31.6374765
  34.7134865  47.5337900  32.7021160  34.0264619  47.7787660  31.0788092
  35.3695567  46.6349750  31.3132896  39.3538522  49.2956968  34.4904765
  38.8078522  50.3856968  34.6724765  40.6678522  49.2326968  34.2304765
  41.0478522  48.3826968  33.9254765  41.5188522  50.4226968  34.2074765
  41.2110091  51.1259392  34.9812864  42.9528522  50.0526968  34.4394765
  43.3173338  49.5363203  33.5514400  43.8238522  51.2686968  34.7114765
  43.4602409  51.7853625  35.5997011  44.8535505  50.9498600  34.8732284
  43.7831314  51.9439433  33.8567926  42.9678522  49.1736968  35.5554765
  42.7228522  48.2816968  35.2694765  41.4088522  51.0446968  32.8274765
  41.6098522  50.2996968  31.8714765  41.0868522  52.3286968  32.6124765
  40.9948522  52.9506968  33.3644765  40.9068522  52.8666968  31.2834765
  41.3869406  52.2315352  30.5390410  39.4008522  53.0496968  30.8894765
  39.3222865  53.3172235  29.8357421  38.6758522  51.7436968  31.1334765
  38.7535899  51.4757316  32.1871616  37.6255704  51.8546982  30.8638706
  39.1255340  50.9587815  30.5253679  38.7428522  54.1946968  31.6544765
  39.2660960  55.1257937  31.4368151  37.7003156  54.2844793  31.3492615
  38.7915334  53.9927452  32.7244982  41.5658522  54.2346968  31.2254765
  41.7678522  54.8886968  32.2604765  41.9038522  54.6816968  30.0134765
  41.7958522  54.0856968  29.2404765  42.4388522  56.0176968  29.8014765
  42.9556968  56.3507469  30.7015034  43.4108522  56.0326968  28.6564765
  44.1990629  55.3042528  28.8467200  42.8862688  55.7681862  27.7383553
  44.0168522  57.3986968  28.5104765  43.3155849  58.1853945  28.7887419
  44.9094150  57.4718594  29.1318306  44.4128522  57.5946968  27.0784765
  45.5898522  57.7336968  26.7334765  43.4228522  57.5826968  26.1964765
  43.6568522  57.6816968  25.2534765  42.5048522  57.4516968  26.5174765
  41.2498522  56.8986968  29.4614765  40.5168522  56.6596968  28.4924765
  41.0478522  57.8826968  30.3254765  41.6818522  58.0196968  31.0634765
  39.9238522  58.7826968  30.2274765  39.6465996  58.8329069  29.1745239
  38.7148522  58.2846968  31.0294765  38.5486083  57.2530639  30.7193203
  38.8508522  58.3426968  32.5374765  39.0166662  59.3741538  32.8484455
  37.9382354  57.9666011  32.9998418  39.6956297  57.7291187  32.8504838
  37.6758522  59.1626968  30.6734765  37.3408522  58.8906968  29.8004765
  40.3838522  60.0996968  30.7944765  41.3958522  60.2226968  31.5004765
  39.6298522  61.0786968  30.3194765  38.8748522  60.8466968  29.7324765
  39.7858522  62.4746968  30.6964765  40.7396262  62.5986240  31.2093667
  39.7578522  63.4206968  29.4654765  38.7348595  63.4183000  29.0892061
  40.0057822  64.4153182  29.8360961  40.7188522  63.0436968  28.3334765
  41.9418522  63.1786968  28.4924765  40.2228522  62.6076968  27.2914765
  38.6058522  62.8116968  31.5884765  38.5818522  63.9026968  32.1404765
  37.6148522  61.9286968  31.7454765  37.6868522  61.0386968  31.3524765
  36.5088522  62.2186968  32.6174765  36.0756241  63.1732415  32.3187174
  35.4368522  61.1156968  32.4514765  35.9430109  60.1503924  32.4609754
  34.3828522  61.1506968  33.5644765  33.8759149  62.1155965  33.5553095
  33.6543801  60.3565619  33.4008345  34.8679077  61.0048501  34.5296457
  34.6958522  61.3706968  31.1384765  35.4024894  61.3362923  30.3092707
  33.9327037  60.6054288  30.9968115  34.2233927  62.3524076  31.1720436
  37.0918522  62.2806968  34.0254765  38.0598522  61.5726968  34.3324765
  36.6158522  63.2036968  34.8634765  35.7338522  64.3126968  34.4804765
  34.8386105  63.9055406  34.0105123  36.2581816  64.9514770  33.7697462
  35.4318522  65.0296968  35.7954765  34.5559955  64.6093601  36.2897347
  35.2847178  66.0990514  35.6440383  36.6948522  64.7646968  36.5884765
  36.5106438  64.8327009  37.6606433  37.4825259  65.4649964  36.3105372
  37.1088522  63.3456968  36.2234765  38.1971869  63.2992384  36.1851675
  36.5898522  62.2736968  37.1664765  35.4938522  61.7426968  37.0004765
  37.3408522  62.0886968  38.2524765  38.1158522  62.6846968  38.3524765
  37.1278522  61.0976968  39.3174765  37.4257427  60.0985563  38.9995477
  37.9988522  61.5136968  40.4904765  38.9841643  61.6201015  40.0366731
  37.6088817  62.4988977  40.7462151  38.1098522  60.6716968  41.7484765
  38.1927267  61.3635621  42.5866620  37.2007358  60.0798776  41.8550577
  39.2878522  59.7476968  41.7724765  39.4108522  58.8766968  40.9314765
  40.1848522  59.8636968  42.7234765  40.9728522  59.2836968  42.6294765
  40.0888522  60.5146968  43.4394765  35.6948522  60.9116968  39.7764765
  35.1188522  59.8296968  39.7554765  35.0848522  62.0326968  40.1274765
  35.5638522  62.8726968  39.9914765  33.7488522  62.0546968  40.6834765
  33.5930576  61.2100687  41.3546178  33.5828522  63.3476968  41.4794765
  32.6075664  63.2722122  41.9603288  34.3638938  63.3384167  42.2397317
  33.6598522  64.6516968  40.6864765  34.6218522  64.8656968  39.9394765
  32.7438522  65.4606968  40.8304765  32.6428522  61.9226968  39.6634765
  31.4748522  62.0286968  40.0244765  32.9838522  61.7526968  38.3904765
  33.9288522  61.6846968  38.1464765  31.9918522  61.5816968  37.3414765
  30.9884791  61.6231181  37.7652994  32.1298522  62.6896968  36.3114765
  33.1220090  62.5724062  35.8756244  31.3739880  62.4893782  35.5521072
  31.9668522  64.1146968  36.8264765  32.5112369  64.1402217  37.7704546
  32.4384926  64.7947898  36.1171593  30.5368522  64.5846968  37.0754765
  29.6348522  64.4246968  36.2544765  30.3058522  65.2236968  38.2124765
  29.3868522  65.5266968  38.3644765  31.0218522  65.3686968  38.8614765
  32.1838522  60.2286968  36.6514765  31.4908522  59.8686968  35.6834765
  33.1928522  59.4476968  37.0564765  33.7358522  59.7146968  37.8254765
  33.3868522  58.1336968  36.4774765  33.4023435  58.1120666  35.3878016
  34.6978522  57.5396968  37.0204765  34.7450563  57.6878858  38.0993241
  34.7478522  56.0156968  36.7034765  34.7011559  55.8667225  35.6247148
  35.6766483  55.5943445  37.0880552  33.9007956  55.5178965  37.1754819
  35.8698522  58.3496968  36.4664765  35.6362630  59.4063480  36.5969563
  36.7547413  58.0988218  37.0513975  36.1408522  58.0646968  34.9794765
  35.2565074  58.3157840  34.3938236  36.9833823  58.6677935  34.6410735
  36.3749836  57.0082566  34.8482645  32.1598522  57.3426968  36.9404765
  31.7808522  57.4536968  38.1054765  31.4908522  56.5366968  36.1334765
  31.8128522  56.3526968  35.2244765  30.2948522  55.8616968  36.5934765
  29.9051324  56.3154575  37.5046948  29.2668522  56.0036968  35.5094765
  29.5898864  55.4634719  34.6195859  28.3117970  55.6036943  35.8500166
  29.1068522  57.4936968  35.1734765  28.7632811  58.0152082  36.0668328
  30.0782399  57.8875316  34.8744743  28.1098522  57.7036968  34.0514765
  28.5071833  58.4236159  33.3359742  27.8988183  56.7638420  33.5413421
  26.8768522  58.2226968  34.5934765  26.9318522  58.9036968  35.2984765
  25.6658522  57.8476968  34.1924765  25.4988522  56.9396968  33.2304765
  26.2898522  56.5226968  32.7894765  24.5748522  56.6786968  32.9494765
  24.6018522  58.3976968  34.7984765  24.7378522  59.0666968  35.5294765
  23.6758522  58.1376968  34.5184765  30.6658522  54.4306968  36.8984765
  31.2068522  53.7136968  36.0704765  30.5618522  54.0456968  38.1584765
  29.9998522  54.5926968  38.7454765  30.8558522  52.6946968  38.5644765
  31.5608062  52.2446190  37.8654993  31.4638522  52.6776968  39.9364765
  30.7966718  53.0107596  40.7314851  31.8157997  51.6698446  40.1566286
  32.6758522  53.5786968  39.9834765  32.7298522  54.8696968  40.3434765
  31.9878522  55.4686968  40.5874765  33.9718522  55.2796968  40.1674765
  34.2621254  56.2888039  40.4599541  34.6868522  54.2736968  39.7134765
  35.6348522  54.3606968  39.4394765  33.9348522  53.2096968  39.5894765
  34.3817937  52.2562216  39.3079988  29.4448522  52.1236968  38.5704765
  28.4938522  52.8796968  38.8334765  29.2628522  50.8396968  38.2394765
  30.0268522  50.2226968  38.1744765  27.9228522  50.3126968  38.0154765
  27.2414614  51.1066446  38.3211766  27.7248522  50.0456968  36.5014765
  28.1162875  49.0640504  36.2345532  26.2538522  50.0896968  36.2204765
  25.8617604  51.0712627  36.4867343  26.0802491  49.9050189  35.1603555
  25.7478435  49.3248645  36.8096185  28.2958522  51.1436968  35.6114765
  29.3673285  51.2356779  35.7891843  28.1219085  50.8914158  34.5654375
  27.8071919  52.0902339  35.8425161  27.7828522  49.0366968  38.8264765
  28.5788522  48.1086968  38.6934765  26.8498522  49.0266968  39.7724765
  26.2338522  49.7896968  39.8354765  26.6168522  47.9046968  40.6744765
  27.4077160  47.1665793  40.5409985  26.6058522  48.3496968  42.1364765
  25.9435109  49.2134509  42.1941995  26.2194420  47.5530586  42.7722082
  28.0018522  48.7466968  42.6104765  28.5668522  49.9906968  42.2864765
  27.9905430  50.7198971  41.7170609  29.8688522  50.2936968  42.6944765
  30.3271237  51.2518818  42.4495879  30.5808522  49.3496968  43.4164765
  31.8638522  49.6056968  43.8474765  32.0258522  50.5486968  43.8524765
  30.0228522  48.1196968  43.7334765  30.6045103  47.3887599  44.2951753
  28.7348522  47.8206968  43.3394765  28.2944852  46.8584654  43.6007958
  25.2538522  47.4166968  40.2834765  24.3248522  48.2076968  40.1034765
  25.1568522  46.1146968  40.1134765  25.8908522  45.5196968  40.3824765
  23.9838522  45.5026968  39.5484765  23.1566574  46.2119720  39.5206113
  24.2928522  45.0666968  38.1374765  25.0351936  44.2730533  38.2220851
  23.3332694  44.6368152  37.8502437  24.7338522  46.0576968  37.0884765
  25.7044047  46.4839810  37.3422688  24.8418522  45.3036968  35.7974765
  23.8715099  44.8774805  35.5427721  25.1593975  45.9819219  35.0054686
  25.5732958  44.5026174  35.9040718  23.7048522  47.1526968  36.8514765
  23.5354566  47.6997163  37.7789322  24.0723386  47.8382257  36.0878633
  22.7683909  46.7058776  36.5175726  23.5538522  44.3046968  40.3584765
  24.3138522  43.7906968  41.1754765  22.3198522  43.8546968  40.1304765
  21.7808522  44.3736968  39.5014765  21.6988522  42.7246968  40.8194765
  20.6364638  42.6737052  40.5810864  22.3668522  41.4186968  40.3654765
  23.4088199  41.4765218  40.6802129  21.8695927  40.6116144  40.9034829
  22.3038522  41.1466968  38.8774765  22.8649849  41.9535852  38.4061358
  22.8232199  40.2018608  38.7173471  20.9088522  41.0706968  38.2624765
  20.0188522  40.4056968  38.7974765  20.7168522  41.6856968  37.2234765
  21.7958522  42.9036968  42.3334765  21.5998522  44.0506968  42.7544765
  22.1358522  41.9076968  43.1664765  22.4318522  41.0386968  42.8174765
  22.1778522  42.0846968  44.6104765  21.2439992  42.5347610  44.9473146
  22.3628522  40.7486968  45.3284765  23.4024585  40.4656373  45.1635665
  22.2072173  40.9575750  46.3868940  21.4498522  39.6046968  44.8964765
  21.6486082  39.4246467  43.8399828  21.7454088  38.7297822  45.4755040
  19.9708522  39.8646968  45.0944765  19.7456647  39.8532782  46.1609000
  19.7214291  40.8420844  44.6814378  19.1478522  38.7896968  44.3894765
  19.4855668  38.7108925  43.3561134  19.3065447  37.8380005  44.8966157
  17.7318522  39.1206968  44.4124765  17.5848522  40.0326968  43.9364765
  17.1938522  38.3806968  43.9184765  17.4078522  39.1856968  45.3984765
  23.3228522  42.9976968  45.0104765  23.3168522  43.6386968  46.0694765
  24.3148522  43.1256968  44.1214765  24.2618522  42.6596968  43.2624765
  25.4438522  44.0146968  44.3584765  25.9198866  43.6575942  45.2716951
  26.4488522  43.9326968  43.2234765  25.9896221  44.2955291  42.3039329
  27.3176702  44.5462752  43.4617559  26.7618287  42.8973308  43.0887087
  25.0808522  45.4906968  44.5314765  25.9478522  46.2596968  44.9634765
  23.8128522  45.8816968  44.2834765  23.1858522  45.2216968  43.9164765
  23.3318522  47.2486968  44.4534765  23.8679658  47.9203126  43.7829441
  21.8068522  47.4146968  44.2074765  21.4950695  48.3978835  44.5599457
  21.4898522  47.2836968  42.7194765  21.8009516  46.3005233  42.3663645
  20.4175424  47.4024460  42.5640715  22.0244658  48.0544797  42.1643336
  21.0448522  46.3806968  45.0204765  21.2583973  46.5215138  46.0800382
  19.9751091  46.4979272  44.8472533  21.3538850  45.3801645  44.7179294
  23.5848522  47.7466968  45.8544765  23.8108522  48.9356968  46.0634765
  23.6348522  46.8256968  46.8064765  23.5228522  45.8786968  46.5714765
  23.8268522  47.2046968  48.1764765  23.4366047  48.1538766  48.5437144
  23.1058522  46.0406968  48.9344765  22.2235136  45.7536009  48.3625029
  24.0078522  44.8396968  49.1054765  24.8902517  45.1259218  49.6777940
  23.4704943  44.0536853  49.6360732  24.3141176  44.4722802  48.1260337
  22.5428522  46.6026968  50.2154765  21.8345763  47.3980898  49.9835342
  22.0331762  45.8123310  50.7665226  23.3532572  47.0044976  50.8236711
  25.2738522  47.4926968  48.5794765  25.5168522  48.0306968  49.6584765
  26.2938522  47.2266968  47.7764765  26.1068522  46.9896968  46.8434765
  27.6828522  47.3316968  48.2364765  27.7857603  46.9106453  49.2365889
  28.5928522  46.5476968  47.2774765  28.4089004  47.0259271  46.3154179
  29.6066919  46.7743982  47.6073789  28.4298522  45.0266968  47.1324765
  27.3713763  44.7727985  47.0753348  29.1238522  44.5786968  45.8674765
  30.1825332  44.8318565  45.9240768  29.0142512  43.5000921  45.7547810
  28.6761810  45.0804671  45.0096201  29.0078522  44.3176968  48.3124765
  28.4952711  44.6413032  49.2183677  28.8813891  43.2421711  48.1885699
  30.0694682  44.5512715  48.3931821  28.1958522  48.7526968  48.3804765
  28.8788522  49.1096968  49.3414765  27.9278522  49.5876968  47.4014765
  27.4328522  49.2776968  46.6134765  28.2898522  50.9886968  47.4804765
  28.5161154  51.2361542  48.5176211  29.5068522  51.3236968  46.6224765
  29.4497672  50.7274552  45.7117973  29.4561821  52.3821084  46.3669431
  30.8198522  51.0366968  47.3344765  30.6795421  50.2105603  48.0315506
  31.5777249  50.7662807  46.5992172  31.2728522  52.2736968  48.0984765
  30.4889460  53.0310330  48.0928376  31.5125929  52.0073308  49.1278807
  32.4608522  52.8286968  47.4724765  33.1418522  52.2086968  47.1374765
  32.6848522  54.1446968  47.3294765  31.8158522  55.0646968  47.7564765
  30.9678522  54.7816968  48.2004765  32.0128522  56.0366968  47.6304765
  33.8258522  54.5516968  46.7514765  34.4968522  53.8796968  46.4374765
  34.0058522  55.5286968  46.6404765  27.0708522  51.7096968  46.9354765
  26.9208522  51.8566968  45.7234765  26.1538522  52.1086968  47.8194765
  26.1558522  51.7376968  49.2464765  26.9929115  52.2346135  49.7368904
  26.2769193  50.6575098  49.3279496  24.8038522  52.2126968  49.7704765
  24.8847583  53.1961518  50.2334770  24.3909400  51.5057571  50.4900883
  23.9588522  52.2606968  48.5134765  23.1317261  52.9611386  48.6289869
  23.5692439  51.2825017  48.2316267  24.9198522  52.7656968  47.4434765
  24.6139881  52.3767062  46.4722753  25.0678522  54.2846968  47.3594765
  24.0818522  55.0246968  47.3504765  26.2978522  54.8016968  47.3354765
  27.0628522  54.2366968  47.1224765  26.4878522  56.2376968  47.3714765
  25.5391585  56.7650980  47.4711123  27.3488522  56.5416968  48.6024765
  27.3292824  57.6253671  48.7181261  26.8528571  56.0768727  49.4545489
  28.7908522  56.0656968  48.5344765  29.0628522  54.9046968  48.8594765
  29.6278522  56.8886968  48.1604765  27.1218522  56.7176968  46.0724765
  27.7618522  57.7746968  45.9624765  26.8608522  55.8476968  45.1114765
  26.0878522  55.2496968  45.2034765  27.4068522  55.8276968  43.7794765
  27.7039460  56.8299185  43.4706302  28.6678522  54.9076968  43.7674765
  28.4935379  54.2789001  44.6405907  28.4455755  54.3419318  42.8627096
  30.1488522  55.3576968  43.7434765  30.3498376  55.7914325  42.7638954
  30.4718522  56.3756968  44.8234765  30.2715430  55.9424941  45.8034308
  31.5236206  56.6542712  44.7580528  29.8525146  57.2619071  44.6850840
  31.0228522  54.1396968  44.0234765  30.8493585  53.3835999  43.2577631
  32.0722130  54.4343057  44.0112786  30.7725449  53.7294083  45.0017957
  26.2448522  55.2426968  42.9534765  26.4948522  54.7696968  41.8504765
  25.0859068  55.3410419  43.3504820  49.0383590  45.0502250  12.6206010
  18.8248522  26.9420478  32.0454765  52.8208522  35.7836968  21.7284765
  53.7188522  36.1106968  21.8174765  52.4658522  35.9166968  22.6294765
  57.1518522  49.5386968  27.5284765  57.7588522  49.9916968  26.9314765
  56.6648522  50.2756968  27.9324765  49.7948522  56.3256968  23.1994765
  49.2848522  57.1426968  23.1054765  50.0228522  56.1356968  22.2764765
  57.9008522  27.0446968  27.3004765  58.3238522  26.5666968  28.0304765
  58.0578522  27.9546968  27.5804765  52.9758522  32.9876968  23.6924765
  52.7058522  33.5806968  22.9794765  52.9608522  32.1246968  23.2694765
  57.0448522  46.9516968  26.5144765  57.0158522  47.8126968  26.9834765
  57.5498522  46.3696968  27.0934765  38.6938522  30.3306968  30.2474765
  38.4968522  29.3926968  30.2244765  39.4618522  30.4246968  29.6774765
  54.9648522  48.4006968  17.1384765  54.0958522  48.7346968  17.3864765
  55.2558522  49.0716968  16.5054765  47.2258522  31.2986968  23.8694765
  46.4368522  31.2066968  24.4574765  47.4578522  30.3696968  23.7744765
  60.3988522  48.8956968  24.9334765  59.6698522  48.3406968  25.2334765
  61.1648522  48.3596968  25.2234765  64.0088522  25.7116968  47.3944765
  64.6508522  26.3606968  47.7204765  64.3218522  24.9346968  47.8644765
  51.7118522  20.9306968  35.9334765  51.7638522  20.2216968  36.5884765
  52.2558522  21.6316968  36.3504765  62.2318522  32.5946968  28.7784765
  63.0008522  33.0966968  29.0554765  61.5428522  32.8796968  29.4114765
  69.2628522  39.1826968  42.7824765  68.4968522  39.4526968  42.2354765
  68.9338522  39.3756968  43.6644765  40.0068522  20.6796968  37.6954765
  39.9798522  20.3606968  38.6214765  40.9098522  20.4676968  37.4474765
  49.3718522  22.0186968  34.8174765  50.2218522  21.6426968  35.1224765
  49.2408522  22.7756968  35.4024765  49.9198522  57.9426968  26.8134765
  49.2178522  58.2256968  26.1844765  50.1138522  58.7716968  27.2754765
  59.3168522  22.5326968  28.6244765  59.9358522  22.1916968  27.9784765
  58.5268522  21.9766968  28.4544765  47.9348522  19.8746968  42.8664765
  48.2698522  19.2276968  43.4884765  48.4358522  20.6656968  43.0794765
  63.5578522  48.9786968  38.8674765  62.7768522  48.7796968  38.3444765
  64.2638522  48.5336968  38.3484765  53.4068522  42.9036968  17.4394765
  53.2178522  43.1266968  18.3704765  52.9298522  42.0536968  17.3984765
  59.4048522  28.1536968  30.4124765  60.2038522  27.9496968  30.9384765
  58.9248522  28.7296968  31.0434765  57.0508522  46.2666968  18.0894765
  56.5978522  45.5386968  18.5404765  56.3178522  46.8536968  17.8304765
  68.7648522  39.6876968  33.5954765  68.3308522  40.2686968  32.9654765
  68.9688522  38.9026968  33.0784765  52.0628522  17.9566968  37.9004765
  52.9078522  17.9976968  38.3714765  51.6378522  17.1636968  38.2854765
  43.7778522  29.0186968  23.3684765  44.7098522  29.1876968  23.5394765
  43.4478522  29.4506968  24.1734765  40.2138522  19.6536968  40.4464765
  39.7178522  19.7906968  41.2564765  40.9178522  19.0366968  40.7274765
  51.0758522  15.4566968  38.9404765  51.7298522  15.4606968  39.6714765
  51.0798522  14.5396968  38.6634765  51.1308522  41.1016968  17.9394765
  50.6698522  40.8476968  17.1314765  50.4178522  41.0356968  18.5884765
  68.6248522  48.9556968  47.1244765  69.5738522  48.7856968  47.2694765
  68.3928522  48.3066968  46.4364765  61.9718522  30.0946968  27.5774765
  61.4068522  29.7846968  28.2874765  62.1408522  31.0176968  27.8544765
  47.1118522  31.5796968  38.1224765  46.9338522  31.0116968  37.3694765
  47.9858522  31.2966968  38.4174765  49.0018522  45.1416968  36.7334765
  48.4538522  45.8556968  37.0914765  48.3698522  44.4226968  36.6604765
  56.4918522  44.8206968  45.5554765  55.7198522  44.2366968  45.4694765
  56.8738522  44.5716968  46.4004765  60.5098522  55.9796968  33.1224765
  60.1808522  55.0816968  33.3044765  60.0938522  56.4796968  33.8254765
  52.9388522  15.7096968  40.8234765  52.8988522  15.4336968  41.7434765
  53.5658522  16.4406968  40.8434765  51.5928522  34.5676968  19.0784765
  52.0128522  34.8916968  19.8914765  50.9208522  35.2276968  18.9094765
  71.0288522  48.2366968  48.4154765  71.7458522  48.4776968  49.0074765
  70.4088522  47.7766968  48.9914765  66.5238522  31.4676968  32.4004765
  66.8548522  32.3696968  32.3104765  67.3168522  30.9956968  32.6664765
  43.1648522  24.7386968  40.4004765  42.6338522  25.1716968  39.7264765
  42.9978522  23.8086968  40.2284765  50.7238522  17.7366968  35.0024765
  50.7348522  18.6836968  34.8284765  51.0558522  17.6946968  35.9104765
  58.3278522  26.3336968  50.8404765  57.6558522  27.0016968  50.6284765
  59.1198522  26.8696968  50.8134765  66.2368522  26.2256968  49.0634765
  66.1948522  26.4736968  49.9904765  67.1668522  26.0276968  48.9254765
  65.8958522  26.0776968  38.7594765  66.3808522  26.7296968  39.2734765
  65.0748522  25.9906968  39.2564765  57.7138522  15.8236968  38.4814765
  56.9018522  16.1876968  38.1234765  57.7838522  16.2226968  39.3494765
  42.1518522  27.0316968  28.0264765  42.3608522  27.9626968  27.8834765
  42.8908522  26.6356968  27.5184765  57.8668522  29.6316968  32.1794765
  56.9098522  29.4436968  32.1384765  57.9708522  30.0906968  33.0334765
  59.8858522  25.6626968  24.9584765  59.1258522  25.7036968  25.5614765
  60.0768522  26.5986968  24.8324765  62.2868522  24.1636968  26.0204765
  61.4728522  24.5426968  25.6464765  62.4508522  24.7416968  26.7694765
  38.5538522  64.5656968  46.5244765  38.7638522  63.8366968  47.1194765
  37.6028522  64.6416968  46.6004765  55.8428522  49.7076968  61.6604765
  56.7198522  49.5976968  61.2754765  55.7128522  50.6596968  61.6204765
  40.2558522  34.7316968  61.4494765  40.5788522  34.6636968  62.3494765
  41.0448522  35.0026968  60.9464765  62.8998522  38.9576968  54.6724765
  62.0848522  39.4836968  54.7344765  63.4648522  39.4166968  55.2904765
  48.7658522  57.5276968  62.2404765  48.0628522  57.1666968  62.7984765
  48.9628522  56.7926968  61.6494765  64.6868522  59.5356968  53.5454765
  63.7398522  59.4106968  53.6004765  64.8778522  59.5036968  52.6074765
  50.4808522  64.1966968  51.9884765  49.8068522  64.5326968  51.3874765
  50.6698522  63.3136968  51.6304765  61.7588522  55.6676968  36.7524765
  61.8088522  55.6196968  35.7914765  62.6828522  55.8496968  37.0164765
  31.4168522  41.7046968  58.3104765  31.2088522  40.8216968  57.9644765
  32.3508522  41.6036968  58.5734765  48.6328522  60.9316968  56.7544765
  48.5638522  61.8136968  56.3684765  49.1908522  60.4596968  56.1154765
  68.6608522  45.1706968  52.7674765  67.8418522  45.6476968  53.0064765
  68.4988522  44.3086968  53.1494765  53.4478522  44.9066968  65.2844765
  54.0448522  45.6666968  65.3694765  52.6118522  45.2396968  65.6094765
  51.6028522  38.7426968  61.7414765  50.9438522  39.3286968  62.1284765
  51.1668522  38.4856968  60.9064765  51.8638522  61.5906968  33.0374765
  50.9048522  61.6806968  33.1524765  51.9988522  62.1276968  32.2394765
  58.3158522  40.9286968  61.8894765  58.6918522  41.8086968  61.9064765
  57.8098522  40.9156968  61.0694765  49.7668522  64.1156968  54.9694765
  50.3428522  64.2566968  54.2004765  48.9058522  64.2686968  54.5784765
  53.9568522  59.8326968  44.1824765  53.1988522  59.2846968  44.4034765
  53.8368522  60.5996968  44.7624765  50.1488522  58.4616968  64.5074765
  49.9718522  58.0746968  63.6354765  50.9738522  58.0516968  64.7824765
  53.9848522  34.9646968  60.4304765  54.1728522  35.6686968  61.0894765
  54.7418522  34.3816968  60.5114765  61.3328522  49.4566968  50.3804765
  62.1398522  48.9276968  50.1254765  61.7438522  49.8076968  51.1774765
  39.8708522  31.1186968  55.0304765  40.7798522  31.4586968  55.1324765
  39.9418522  30.5626968  54.2464765  56.5008522  59.4666968  45.9914765
  55.9178522  59.5126968  45.2284765  56.1628522  58.6906968  46.4694765
  60.7808522  48.0326968  48.2164765  61.6268522  47.5676968  48.3244765
  60.8118522  48.5836968  49.0314765  55.3518522  47.4946968  65.2104765
  55.5098522  48.3416968  65.6334765  56.1058522  47.3936968  64.6214765
  37.5388522  60.8096968  45.9624765  37.8608522  61.3726968  45.2534765
  37.8208522  61.3116968  46.7584765  39.4118522  51.8676968  63.5004765
  38.4868522  51.8006968  63.2384765  39.6578522  50.9476968  63.6604765
  66.9758522  58.2776968  45.3084765  67.0768522  57.9466968  44.4134765
  66.9028522  57.4726968  45.8284765  47.9008522  40.4716968  52.0884765
  47.1948522  40.9786968  52.5114765  47.9518522  40.8896968  51.2204765
  55.9008522  36.3026968  53.4964765  56.7208522  36.4446968  54.0024765
  56.0388522  36.8676968  52.7324765  51.4908522  23.2576968  51.9694765
  51.5908522  22.3046968  51.9774765  50.6208522  23.3786968  52.3604765
  60.4378522  52.6216968  50.0844765  61.3588522  52.8876968  49.9954765
  60.5208522  51.7346968  50.4674765  47.1398522  66.8556968  43.1324765
  46.7408522  67.7056968  42.9304765  48.0818522  67.0136968  43.0594765
  42.3618522  62.4266968  52.7344765  42.3908522  61.5406968  52.3694765
  41.4408522  62.6936968  52.5384765  58.5138522  36.9886968  54.9384765
  58.7738522  36.4256968  55.6734765  59.3558522  37.3426968  54.6294765
  58.7268522  50.6586968  57.1994765  59.4388522  50.0666968  56.9574765
  57.9978522  50.0476968  57.4294765  54.3968522  37.1216968  62.2164765
  53.5548522  37.6126968  62.1874765  54.9888522  37.7706968  62.6044765
  64.2798522  56.1236968  37.8274765  65.0448522  55.6036968  37.5504765
  64.6818522  56.9706968  38.0534765  40.3218522  27.6346968  47.1354765
  40.6758522  26.7546968  46.9534765  39.8488522  27.5186968  47.9674765
  38.1528522  28.5556968  45.8324765  38.9928522  28.3326968  46.2884765
  38.3508522  29.4296968  45.4524765  42.0978522  46.6126968  36.0934765
  42.6498522  46.6186968  36.8864765  41.2108522  46.3776968  36.4154765
  37.4928522  56.0216968  27.7764765  38.3468522  55.8476968  28.1764765
  36.8428522  55.6866968  28.4254765  32.9748522  58.2946968  32.8734765
  32.5638522  58.7226968  33.6374765  32.5878522  57.3946968  32.9324765
  19.2328522  39.5366968  31.9844765  20.1168522  39.4406968  31.5894765
  19.0648522  40.4916968  31.8374765  35.1338522  52.1656968  50.6624765
  35.4788522  52.6436968  49.9054765  35.8718522  51.5956968  50.9334765
  18.5848522  43.1976968  38.8154765  19.4648522  42.8206968  38.8894765
  18.1318522  42.8456968  39.5944765  29.8928522  47.3366968  51.5104765
  30.0678522  47.8896968  50.7384765  28.9798522  47.5636968  51.6944765
  32.2968522  35.2366968  50.1274765  32.3548522  36.1946968  50.3074765
  31.5038522  34.9936968  50.6134765  27.6848522  60.6346968  46.2204765
  28.5668522  60.8676968  45.9124765  27.6668522  59.6646968  46.1194765
  40.6798522  44.8186968  21.8554765  39.7938522  44.8636968  21.4234765
  40.5838522  45.4316968  22.5874765  25.5508522  26.1436968  32.7554765
  24.9028522  25.4906968  32.4734765  25.3708522  26.2036968  33.7194765
  25.4968522  32.6966968  29.0204765  25.7358522  31.8016968  28.7644765
  25.2288522  32.5866968  29.9524765  33.7938522  37.4416968  50.3114765
  34.6968522  37.8226968  50.2794765  33.9208522  36.6326968  49.7984765
  43.1348522  64.7706968  38.1954765  43.7538522  64.6816968  37.4654765
  43.2128522  63.9126968  38.6314765  35.3228522  57.7226968  31.3494765
  34.5228522  57.9786968  31.8504765  35.9268522  58.4516968  31.5434765
  35.5458522  55.3996968  29.5644765  34.6978522  55.6956968  29.1684765
  35.6168522  56.0826968  30.2654765  20.0868522  33.9476968  45.6344765
  20.7368522  33.2406968  45.6254765  20.0678522  34.2406968  44.7244765
  15.3518522  41.6456968  32.7004765  15.9948522  42.3196968  32.3974765
  15.1938522  42.0206968  33.5944765  16.3318522  44.2586968  32.5724765
  15.3878522  44.3266968  32.7844765  16.3678522  44.7026968  31.7214765
  18.9418522  42.3746968  31.8434765  19.2108522  42.9096968  32.6094765
  18.8778522  43.0406968  31.1534765  36.9528522  66.7986968  39.6994765
  36.5938522  67.4786968  39.1174765  36.5378522  67.0026968  40.5444765
  21.3568522  49.1256968  27.0854765  21.7098522  50.0036968  26.9254765
  21.5978522  48.6596968  26.2684765  22.8038522  24.6276968  34.1554765
  22.4838522  23.7476968  34.3794765  22.1198522  24.9596968  33.5664765
  19.0098522  37.8956968  33.9734765  19.5058522  37.0736968  33.8754765
  19.2308522  38.3556968  33.1374765  36.7068522  40.8556968  18.9294765
  36.9858522  40.6746968  18.0234765  36.4898522  39.9676968  19.2494765
  25.3538522  54.8546968  36.8504765  25.8048522  54.5526968  37.6494765
  24.4318522  54.8186968  37.1164765  35.1648522  25.8186968  33.5204765
  34.3588522  25.9966968  34.0394765  35.5968522  25.1346968  34.0544765
  43.2358522  39.0886968  27.8764765  42.6858522  39.8566968  27.6274765
  42.9288522  38.4136968  27.2674765  39.7698522  35.3176968  52.7574765
  40.6758522  35.4106968  52.4494765  39.6838522  36.0546968  53.3764765
  47.9258522  58.3436968  24.8614765  47.1288522  58.1566968  25.4004765
  47.6168522  59.0776968  24.3194765  23.9378522  42.0346968  35.7644765
  24.3968522  41.5976968  35.0404765  23.2308522  41.4116968  35.9694765
  38.1408522  29.0216968  25.5484765  39.0968522  29.1226968  25.5684765
  38.0078522  28.1356968  25.2104765  20.5538522  44.0556968  33.8234765
  21.0208522  44.8616968  33.5634765  20.3738522  44.2116968  34.7564765
  25.2248522  27.1606968  43.0144765  25.3718522  27.6846968  43.8094765
  25.4778522  26.2716968  43.2784765  44.1498522  36.0846968  15.3734765
  44.2728522  35.7526968  14.4574765  44.7098522  35.4886968  15.8794765
  27.0368522  31.1686968  48.6604765  27.8678522  30.6896968  48.6084765
  26.5268522  30.6466968  49.2804765  30.5518522  64.9676968  42.7494765
  30.5448522  64.0046968  42.7444765  31.4678522  65.1686968  43.0234765
  29.7188522  67.0356968  41.2004765  29.9488522  66.2316968  41.7144765
  29.4378522  67.6316968  41.8974765  22.1678522  47.2966968  29.1724765
  22.1418522  46.5776968  28.5444765  21.7928522  48.0286968  28.6504765
  24.0118522  54.6346968  28.4784765  24.7848522  54.6796968  29.0504765
  23.8938522  53.6866968  28.3564765  25.4408522  52.1586968  41.2324765
  25.2078522  52.2886968  42.1624765  25.8748522  53.0406968  41.1434765
  33.8718522  39.2936968  43.9444765  33.2348522  38.7836968  43.4134765
  33.2908522  39.8416968  44.4824765  32.8698522  65.5976968  44.1074765
  32.1948522  65.9106968  44.7234765  33.5568522  65.2536968  44.6824765
  30.1578522  58.9916968  30.3244765  29.7268522  58.1476968  30.5794765
  30.0078522  59.5076968  31.1264765  24.2088522  37.2926968  46.2694765
  23.7948522  36.8526968  45.5244765  25.1588522  37.1936968  46.0724765
  25.6508522  34.9296968  27.4984765  25.5598522  34.0906968  27.9974765
  26.4398522  35.3166968  27.8764765  27.7158522  24.9986968  34.8034765
  27.0238522  24.7486968  35.4234765  27.4548522  24.5616968  33.9894765
  42.0038522  37.7976968  15.4394765  42.5978522  38.5176968  15.6994765
  42.6748522  37.0756968  15.4044765  38.7458522  64.5636968  39.2164765
  38.2008522  65.3496968  39.4224765  39.5838522  64.9666968  38.9604765
  28.5208522  32.7406968  24.3954765  27.8108522  32.2316968  24.0034765
  28.0658522  33.3706968  24.9584765  29.2688522  40.5256968  20.6334765
  29.5188522  40.0686968  21.4644765  28.5628522  39.9686968  20.3004765
  23.9578522  51.2286968  39.0024765  23.7618522  50.3546968  39.3614765
  24.4298522  51.6526968  39.7504765  25.7838522  38.3926968  52.2434765
  26.7508522  38.3826968  52.1204765  25.6048522  37.5246968  52.5994765
  39.9798522  39.5426968  15.0474765  40.3818522  40.1966968  14.4734765
  40.7138522  38.9086968  15.1674765  83.4821470  78.1860450  78.2296100
  83.4015520  77.2715060  77.9587810  83.0685890  78.6827520  77.5235810
  81.6139510  79.9639470  80.1105370  80.8381610  79.4839910  80.4003940
  82.2652440  79.2845120  79.9361530  75.6305340  80.2759280  80.9881130
  74.7990220  80.0207990  81.3877640  76.2386320  80.3470050  81.7239050
  74.0397290  75.2361170  74.7723520  73.1513990  75.5777140  74.6703400
  74.3238480  75.0361490  73.8804350  72.0030300  77.8366820  80.6563220
  72.5746410  77.0689020  80.6566860  72.0031840  78.1355580  79.7469830
  73.2455170  73.2451180  82.4432150  73.0658010  72.3476930  82.7234910
  72.8435250  73.7923050  83.1179100  82.0853670  75.4467040  80.3444460
  82.4618490  74.5738920  80.2318130  81.9873180  75.7825740  79.4534900
  76.2158680  73.8192670  75.8061900  76.3225430  74.7196400  76.1130660
  75.3051040  73.7710640  75.5156550  73.8641840  75.7411680  81.0514490
  74.5451950  76.0050050  81.6701890  73.5489890  74.9012550  81.3852500
  78.0566410  76.7879040  80.1387080  78.5644630  77.2860010  80.7792100
  78.5879650  76.0114240  79.9626440  76.0217840  73.1387560  82.4120950
  76.3634650  73.9829610  82.1174820  75.0833650  73.2871300  82.5286290
  79.7045730  70.6269830  78.7365540  80.0120710  70.0716720  78.0201040
  78.7746430  70.7614290  78.5538530  82.0926490  78.6918660  75.4725660
  81.1655770  78.6256040  75.7014130  82.2451310  79.6298790  75.3580900
  82.0795570  74.9635660  72.4692820  81.1399240  75.1249620  72.5545280
  82.3978830  75.6821340  71.9228810  77.6983130  79.2183400  78.2545390
  77.2940130  78.5060650  77.7591290  77.7846250  78.8736640  79.1433430
  76.4111750  75.9926610  82.0344430  76.9626340  76.1021950  81.2597680
  76.9255260  76.3664210  82.7499660  74.3987760  78.1128380  75.7552040
  74.2785360  78.8390470  75.1433310  74.0888650  77.3431290  75.2779950
  76.8651420  71.4563450  79.1375710  76.4219570  72.2372990  78.8060230
  77.4236410  71.7793340  79.8446650  79.9810240  71.0774150  74.0181540
  79.3564420  71.0734020  74.7434850  79.8940360  70.2105110  73.6217510
  78.9027320  72.0010780  80.9965310  79.1999650  72.9073610  80.9157330
  79.4512880  71.5129560  80.3824880  76.6565640  76.5797020  76.8656960
  76.4306560  76.3634190  77.7703580  75.8758170  77.0125480  76.5202930
  83.8863400  76.5860390  75.4647610  83.2872290  77.3096190  75.2811230
  84.4343010  76.5237170  74.6824060  82.4928270  75.2223930  77.4950890
  82.8857840  75.5396130  76.6819580  82.8545120  74.3435810  77.6095410
  71.5292440  71.8124730  79.7181090  71.2405490  72.3827590  80.4306070
  72.2738200  71.3329180  80.0812320  71.7162670  75.7544850  70.9283810
  71.6337340  76.6975610  71.0698800  71.3645730  75.6119760  70.0496160
  83.0783410  77.8129680  81.5901670  82.3464530  78.3216490  81.9391770
  82.6807750  76.9959660  81.2890450  79.5160800  74.4883880  79.9954160
  79.5196860  74.0473830  79.1458700  80.4111920  74.8101210  80.1025980
  75.3663180  74.3710370  78.9548370  75.0263230  74.8485600  79.7115420
  74.6040500  73.9175490  78.5949470  79.5780950  75.4895960  72.9860920
  79.6993770  75.4482440  73.9346740  79.1929460  76.3520110  72.8307650
  83.5409320  73.2663360  81.0024610  83.5582060  73.7172010  81.8466460
  83.2924900  72.3669000  81.2158050  78.5902450  77.7997100  72.3844220
  78.0219350  77.3515350  71.7580130  79.2991450  78.1589880  71.8509370
  79.8168770  78.5485660  81.7419570  80.1838900  78.0744230  82.4880910
  79.6273830  79.4227230  82.0827910  72.6809260  73.2929350  77.8713040
  72.3956180  72.9285020  78.7091660  72.6188120  72.5609810  77.2576180
  82.3547850  72.1858610  74.5926410  81.5412460  71.6871780  74.5171720
  82.1609800  73.0256860  74.1762760  72.1739920  78.4288300  71.8309740
  73.0434770  78.7113100  72.1145660  71.6830240  79.2424170  71.7158550
  79.3374730  79.8161510  75.9518020  79.7937510  80.6266760  76.1778210
  78.9862940  79.4984650  76.7836510  75.2386510  70.1599160  76.4240540
  75.1101140  70.1517060  77.3725460  74.4148530  70.4982250  76.0731550
  74.1586430  80.2461770  73.9591800  73.5514380  80.9860670  73.9687100
  74.6335780  80.3361130  73.1330000  79.0665280  75.6455480  75.8594130
  78.3581430  76.1141820  76.3007740  79.3509760  74.9877490  76.4939320
  83.0980710  72.3706140  77.2989920  82.9748490  72.3892270  76.3499430
  84.0465270  72.4185080  77.4188320  77.2700300  73.9540560  73.2344840
  78.1190830  74.3910710  73.1685030  76.9031570  74.2660820  74.0616900
  76.1691720  80.2072920  71.7080370  76.9354990  80.0954280  72.2705800
  76.2466410  79.5110890  71.0557140  74.8638480  77.6397990  72.3913260
  74.9442070  76.6925500  72.5030660  75.7558230  77.9704870  72.4973920
  78.2010750  80.2038050  73.6823010  78.6227170  80.0377920  74.5254400
  78.3261590  79.3938280  73.1878150  80.7138390  79.2275660  70.9300110
  81.2344050  78.5124680  70.5641260  81.3606790  79.8661530  71.2300620
  77.0969650  76.2771280  70.6281170  76.8958710  75.4138640  70.9894510
  76.9261700  76.1904640  69.6902770  75.8952450  73.3771900  70.6159050
  76.1978350  73.3839330  69.7078200  76.6347040  73.0269760  71.1126710
  79.1137380  72.3206520  71.6015250  78.7659380  71.6430510  71.0217700
  79.3150150  71.8596030  72.4158640  72.4543020  78.8494170  77.9979620
  71.7991860  78.5805810  77.3539320  73.2920970  78.7398650  77.5481600
  71.6681100  76.0593100  73.9404950  70.7645180  76.3223300  73.7656610
  72.1521720  76.3304270  73.1604910  74.2108310  75.1158640  71.8499330
  74.9200010  74.6941860  71.3646610  73.4948250  75.1833870  71.2182680
  73.8582470  71.1697970  70.8901980  74.5810600  71.7106910  71.2083200
  74.1306990  70.8961390  70.0143520  73.5474660  70.4204160  80.7924600
  74.1950850  69.8701540  80.3519760  73.9676500  70.6747310  81.6140410
  81.9388900  70.9043750  81.9623830  81.1560690  71.3789250  82.2420590
  81.6451830  69.9998580  81.8537010  73.2829310  71.2091230  74.4837550
  74.0408670  71.3220110  73.9101580  72.8206480  72.0460430  74.4380980
  79.8243120  73.3230500  77.4739860  79.0117630  72.9487390  77.1335740
  80.3284760  72.5675580  77.7761050  75.6554460  71.7355280  73.0239520
  76.1847220  70.9485080  72.8947470  76.2882780  72.4146470  73.2575050
  77.8492300  71.4730420  76.0784910  77.2195040  70.7717730  76.2455040
  77.3097440  72.2334550  75.8618070  83.4821470  78.1860450  59.4552610
  83.4015520  77.2715060  59.1844320  83.0685890  78.6827520  58.7492320
  81.6139510  79.9639470  61.3361880  80.8381610  79.4839910  61.6260450
  82.2652440  79.2845120  61.1618040  75.6305340  80.2759280  62.2137640
  74.7990220  80.0207990  62.6134150  76.2386320  80.3470050  62.9495560
  74.0397290  75.2361170  55.9980030  73.1513990  75.5777140  55.8959910
  74.3238480  75.0361490  55.1060860  72.0030300  77.8366820  61.8819730
  72.5746410  77.0689020  61.8823370  72.0031840  78.1355580  60.9726340
  73.2455170  73.2451180  63.6688660  73.0658010  72.3476930  63.9491420
  72.8435250  73.7923050  64.3435610  82.0853670  75.4467040  61.5700970
  82.4618490  74.5738920  61.4574640  81.9873180  75.7825740  60.6791410
  76.2158680  73.8192670  57.0318410  76.3225430  74.7196400  57.3387170
  75.3051040  73.7710640  56.7413060  73.8641840  75.7411680  62.2771000
  74.5451950  76.0050050  62.8958400  73.5489890  74.9012550  62.6109010
  78.0566410  76.7879040  61.3643590  78.5644630  77.2860010  62.0048610
  78.5879650  76.0114240  61.1882950  76.3402510  71.4277600  65.6307010
  76.3420950  71.9449990  64.8252910  75.5106820  70.9507780  65.6076940
  76.0217840  73.1387560  63.6377460  76.3634650  73.9829610  63.3431330
  75.0833650  73.2871300  63.7542800  79.7045730  70.6269830  59.9622050
  80.0120710  70.0716720  59.2457550  78.7746430  70.7614290  59.7795040
  82.0926490  78.6918660  56.6982170  81.1655770  78.6256040  56.9270640
  82.2451310  79.6298790  56.5837410  82.0795570  74.9635660  53.6949330
  81.1399240  75.1249620  53.7801790  82.3978830  75.6821340  53.1485320
  77.6983130  79.2183400  59.4801900  77.2940130  78.5060650  58.9847800
  77.7846250  78.8736640  60.3689940  76.4111750  75.9926610  63.2600940
  76.9626340  76.1021950  62.4854190  76.9255260  76.3664210  63.9756170
  76.0854480  79.5145970  66.8706280  75.9462250  80.3868770  67.2393680
  75.2035840  79.1718780  66.7254220  74.3987760  78.1128380  56.9808550
  74.2785360  78.8390470  56.3689820  74.0888650  77.3431290  56.5036460
  76.8651420  71.4563450  60.3632220  76.4219570  72.2372990  60.0316740
  77.4236410  71.7793340  61.0703160  81.1521230  74.3231970  65.9667540
  80.6900600  74.5314990  66.7787480  80.7499340  73.5091320  65.6638210
  83.2475450  77.0442670  69.1962990  83.5728860  76.2106420  68.8565220
  84.0355780  77.5671190  69.3441320  79.9810240  71.0774150  55.2438050
  79.3564420  71.0734020  55.9691360  79.8940360  70.2105110  54.8474020
  78.9027320  72.0010780  62.2221820  79.1999650  72.9073610  62.1413840
  79.4512880  71.5129560  61.6081390  76.6565640  76.5797020  58.0913470
  76.4306560  76.3634190  58.9960090  75.8758170  77.0125480  57.7459440
  83.8863400  76.5860390  56.6904120  83.2872290  77.3096190  56.5067740
  84.4343010  76.5237170  55.9080570  79.0964850  77.4782600  68.7573740
  79.0008450  76.5377330  68.6074140  79.9396830  77.6997670  68.3621810
  82.4928270  75.2223930  58.7207400  82.8857840  75.5396130  57.9076090
  82.8545120  74.3435810  58.8351920  74.2275390  73.8896270  66.9107520
  73.8338780  74.7371480  67.1180300  73.5393790  73.2522640  67.1016160
  80.8020440  73.9731240  69.9804260  80.1118760  73.7803440  70.6150350
  81.5452740  74.2565880  70.5128560  71.5292440  71.8124730  60.9437600
  71.2405490  72.3827590  61.6562580  72.2738200  71.3329180  61.3068830
  71.7162670  75.7544850  52.1540320  71.6337340  76.6975610  52.2955310
  71.3645730  75.6119760  51.2752670  83.0783410  77.8129680  62.8158180
  82.3464530  78.3216490  63.1648280  82.6807750  76.9959660  62.5146960
  79.5160800  74.4883880  61.2210670  79.5196860  74.0473830  60.3715210
  80.4111920  74.8101210  61.3282490  75.3663180  74.3710370  60.1804880
  75.0263230  74.8485600  60.9371930  74.6040500  73.9175490  59.8205980
  79.5780950  75.4895960  54.2117430  79.6993770  75.4482440  55.1603250
  79.1929460  76.3520110  54.0564160  83.5409320  73.2663360  62.2281120
  83.5582060  73.7172010  63.0722970  83.2924900  72.3669000  62.4414560
  78.5902450  77.7997100  53.6100730  78.0219350  77.3515350  52.9836640
  79.2991450  78.1589880  53.0765880  79.8168770  78.5485660  62.9676080
  80.1838900  78.0744230  63.7137420  79.6273830  79.4227230  63.3084420
  72.6809260  73.2929350  59.0969550  72.3956180  72.9285020  59.9348170
  72.6188120  72.5609810  58.4832690  77.6068140  77.5894300  65.2860290
  77.3025210  78.4686280  65.5110650  78.5614600  77.6494090  65.3217730
  82.3547850  72.1858610  55.8182920  81.5412460  71.6871780  55.7428230
  82.1609800  73.0256860  55.4019270  82.2756710  80.8629710  67.5622530
  82.2094020  79.9425380  67.3080120  81.6461850  80.9605150  68.2767170
  73.6631870  78.4297040  66.4331650  73.3046810  79.0950890  67.0204990
  73.3686430  77.5980590  66.8044270  76.8644990  78.8881280  69.3171200
  76.5645130  79.0338460  68.4199020  77.6356230  78.3286570  69.2244590
  72.1739920  78.4288300  53.0566250  73.0434770  78.7113100  53.3402170
  71.6830240  79.2424170  52.9415060  79.3374730  79.8161510  57.1774530
  79.7937510  80.6266760  57.4034720  78.9862940  79.4984650  58.0093020
  75.2386510  70.1599160  57.6497050  75.1101140  70.1517060  58.5981970
  74.4148530  70.4982250  57.2988060  72.2380440  71.9190280  67.1103750
  71.5238960  72.1187200  67.7156360  72.6575480  71.1429850  67.4818550
  74.1586430  80.2461770  55.1848310  73.5514380  80.9860670  55.1943610
  74.6335780  80.3361130  54.3586510  83.7319220  74.4112590  64.8605200
  84.1000040  73.5907800  65.1884770  82.8717420  74.4714480  65.2760850
  79.0665280  75.6455480  57.0850640  78.3581430  76.1141820  57.5264250
  79.3509760  74.9877490  57.7195830  80.6921210  77.0652180  65.0843170
  81.1906460  77.5398000  65.7495020  80.8344160  76.1415700  65.2913200
  83.0980710  72.3706140  58.5246430  82.9748490  72.3892270  57.5755940
  84.0465270  72.4185080  58.6444830  77.2700300  73.9540560  54.4601350
  78.1190830  74.3910710  54.3941540  76.9031570  74.2660820  55.2873410
  76.1691720  80.2072920  52.9336880  76.9354990  80.0954280  53.4962310
  76.2466410  79.5110890  52.2813650  74.8638480  77.6397990  53.6169770
  74.9442070  76.6925500  53.7287170  75.7558230  77.9704870  53.7230430
  72.3909280  79.4612910  68.8525940  72.8948300  78.8820190  69.4242170
  71.6516700  79.7453140  69.3902310  74.4232360  77.6042500  69.7476010
  74.4637700  77.3056370  70.6561240  75.2777860  78.0050110  69.5883530
  78.2010750  80.2038050  54.9079520  78.6227170  80.0377920  55.7510910
  78.3261590  79.3938280  54.4134660  76.3638170  76.1834600  67.7150500
  75.8334630  75.6925550  67.0873840  77.0326240  76.6118800  67.1808430
  80.7138390  79.2275660  52.1556620  81.2344050  78.5124680  51.7897770
  81.3606790  79.8661530  52.4557130  76.8510470  73.1496970  67.7947790
  76.7567340  72.5317720  67.0698660  76.2707860  73.8763260  67.5677700
  79.6171910  71.7070210  64.8275180  79.1689210  71.7294470  63.9820730
  78.9837110  71.3089230  65.4245480  82.3595360  78.3340720  66.8325460
  82.4791570  77.7381860  67.5720300  83.2189360  78.3710410  66.4126760
  77.0969650  76.2771280  51.8537680  76.8958710  75.4138640  52.2151020
  76.9261700  76.1904640  50.9159280  79.1264130  74.8762070  68.0901280
  79.7163820  74.5677920  68.7779100  78.3084370  74.4041820  68.2461180
  83.9457560  74.4927880  68.3234300  83.2573080  73.8309420  68.2584290
  84.6663580  74.0466150  68.7682760  75.8952450  73.3771900  51.8415560
  76.1978350  73.3839330  50.9334710  76.6347040  73.0269760  52.3383220
  79.1137380  72.3206520  52.8271760  78.7659380  71.6430510  52.2474210
  79.3150150  71.8596030  53.6415150  72.4543020  78.8494170  59.2236130
  71.7991860  78.5805810  58.5795830  73.2920970  78.7398650  58.7738110
  73.4918950  79.2346740  63.7639470  73.8591990  79.1474140  64.6435490
  72.9229770  78.4713290  63.6646330  73.0434950  76.1455830  67.6697890
  72.1491000  76.1122590  68.0091600  73.5832500  76.3442620  68.4349140
  71.6681100  76.0593100  55.1661460  70.7645180  76.3223300  54.9913120
  72.1521720  76.3304270  54.3861420  74.2108310  75.1158640  53.0755840
  74.9200010  74.6941860  52.5903120  73.4948250  75.1833870  52.4439190
  73.8582470  71.1697970  52.1158490  74.5810600  71.7106910  52.4339710
  74.1306990  70.8961390  51.2400030  73.5474660  70.4204160  62.0181110
  74.1950850  69.8701540  61.5776270  73.9676500  70.6747310  62.8396920
  73.3006660  70.5759830  64.7606430  72.9521480  71.0323650  65.5264610
  72.9694360  69.6816960  64.8428860  80.8131480  71.7671710  68.2825850
  80.7520370  72.3593540  69.0321260  81.7531860  71.6597670  68.1376110
  83.4506040  71.4241770  67.9218140  84.0646450  71.7421060  67.2599220
  83.9955600  70.9390360  68.5414000  73.9727300  70.1036030  68.0357200
  74.5210290  69.9224080  67.2723310  74.0382610  69.3130140  68.5713510
  84.1914080  69.9873910  64.2487430  83.3173920  70.3209020  64.0460360
  84.0824830  69.5147090  65.0739300  81.9388900  70.9043750  63.1880340
  81.1560690  71.3789250  63.4677100  81.6451830  69.9998580  63.0793520
  73.2829310  71.2091230  55.7094060  74.0408670  71.3220110  55.1358090
  72.8206480  72.0460430  55.6637490  79.8243120  73.3230500  58.6996370
  79.0117630  72.9487390  58.3592250  80.3284760  72.5675580  59.0017560
  75.6554460  71.7355280  54.2496030  76.1847220  70.9485080  54.1203980
  76.2882780  72.4146470  54.4831560  77.8492300  71.4730420  57.3041420
  77.2195040  70.7717730  57.4711550  77.3097440  72.2334550  57.0874580
  77.9747860  70.7514400  69.7393910  77.6932130  71.2548000  68.9754730
  78.3567560  69.9536150  69.3736040  83.4821470  78.1860450  40.6809120
  83.4015520  77.2715060  40.4100830  83.0685890  78.6827520  39.9748830
  81.6139510  79.9639470  42.5618390  80.8381610  79.4839910  42.8516960
  82.2652440  79.2845120  42.3874550  75.6305340  80.2759280  43.4394150
  74.7990220  80.0207990  43.8390660  76.2386320  80.3470050  44.1752070
  74.0397290  75.2361170  37.2236540  73.1513990  75.5777140  37.1216420
  74.3238480  75.0361490  36.3317370  72.0030300  77.8366820  43.1076240
  72.5746410  77.0689020  43.1079880  72.0031840  78.1355580  42.1982850
  73.2455170  73.2451180  44.8945170  73.0658010  72.3476930  45.1747930
  72.8435250  73.7923050  45.5692120  82.0853670  75.4467040  42.7957480
  82.4618490  74.5738920  42.6831150  81.9873180  75.7825740  41.9047920
  76.2158680  73.8192670  38.2574920  76.3225430  74.7196400  38.5643680
  75.3051040  73.7710640  37.9669570  73.8641840  75.7411680  43.5027510
  74.5451950  76.0050050  44.1214910  73.5489890  74.9012550  43.8365520
  78.0566410  76.7879040  42.5900100  78.5644630  77.2860010  43.2305120
  78.5879650  76.0114240  42.4139460  76.3402510  71.4277600  46.8563520
  76.3420950  71.9449990  46.0509420  75.5106820  70.9507780  46.8333450
  76.0217840  73.1387560  44.8633970  76.3634650  73.9829610  44.5687840
  75.0833650  73.2871300  44.9799310  79.7045730  70.6269830  41.1878560
  80.0120710  70.0716720  40.4714060  78.7746430  70.7614290  41.0051550
  82.0926490  78.6918660  37.9238680  81.1655770  78.6256040  38.1527150
  82.2451310  79.6298790  37.8093920  82.0795570  74.9635660  34.9205840
  81.1399240  75.1249620  35.0058300  82.3978830  75.6821340  34.3741830
  77.6983130  79.2183400  40.7058410  77.2940130  78.5060650  40.2104310
  77.7846250  78.8736640  41.5946450  76.4111750  75.9926610  44.4857450
  76.9626340  76.1021950  43.7110700  76.9255260  76.3664210  45.2012680
  76.0854480  79.5145970  48.0962790  75.9462250  80.3868770  48.4650190
  75.2035840  79.1718780  47.9510730  74.3987760  78.1128380  38.2065060
  74.2785360  78.8390470  37.5946330  74.0888650  77.3431290  37.7292970
  76.8651420  71.4563450  41.5888730  76.4219570  72.2372990  41.2573250
  77.4236410  71.7793340  42.2959670  81.1521230  74.3231970  47.1924050
  80.6900600  74.5314990  48.0043990  80.7499340  73.5091320  46.8894720
  83.2475450  77.0442670  50.4219500  83.5728860  76.2106420  50.0821730
  84.0355780  77.5671190  50.5697830  79.9810240  71.0774150  36.4694560
  79.3564420  71.0734020  37.1947870  79.8940360  70.2105110  36.0730530
  78.9027320  72.0010780  43.4478330  79.1999650  72.9073610  43.3670350
  79.4512880  71.5129560  42.8337900  76.6565640  76.5797020  39.3169980
  76.4306560  76.3634190  40.2216600  75.8758170  77.0125480  38.9715950
  83.8863400  76.5860390  37.9160630  83.2872290  77.3096190  37.7324250
  84.4343010  76.5237170  37.1337080  79.0964850  77.4782600  49.9830250
  79.0008450  76.5377330  49.8330650  79.9396830  77.6997670  49.5878320
  82.4928270  75.2223930  39.9463910  82.8857840  75.5396130  39.1332600
  82.8545120  74.3435810  40.0608430  74.2275390  73.8896270  48.1364030
  73.8338780  74.7371480  48.3436810  73.5393790  73.2522640  48.3272670
  80.8020440  73.9731240  51.2060770  80.1118760  73.7803440  51.8406860
  81.5452740  74.2565880  51.7385070  71.5292440  71.8124730  42.1694110
  71.2405490  72.3827590  42.8819090  72.2738200  71.3329180  42.5325340
  71.7162670  75.7544850  33.3796830  71.6337340  76.6975610  33.5211820
  71.3645730  75.6119760  32.5009180  83.0783410  77.8129680  44.0414690
  82.3464530  78.3216490  44.3904790  82.6807750  76.9959660  43.7403470
  79.5160800  74.4883880  42.4467180  79.5196860  74.0473830  41.5971720
  80.4111920  74.8101210  42.5539000  75.3663180  74.3710370  41.4061390
  75.0263230  74.8485600  42.1628440  74.6040500  73.9175490  41.0462490
  79.5780950  75.4895960  35.4373940  79.6993770  75.4482440  36.3859760
  79.1929460  76.3520110  35.2820670  83.5409320  73.2663360  43.4537630
  83.5582060  73.7172010  44.2979480  83.2924900  72.3669000  43.6671070
  78.5902450  77.7997100  34.8357240  78.0219350  77.3515350  34.2093150
  79.2991450  78.1589880  34.3022390  79.8168770  78.5485660  44.1932590
  80.1838900  78.0744230  44.9393930  79.6273830  79.4227230  44.5340930
  72.6809260  73.2929350  40.3226060  72.3956180  72.9285020  41.1604680
  72.6188120  72.5609810  39.7089200  77.6068140  77.5894300  46.5116800
  77.3025210  78.4686280  46.7367160  78.5614600  77.6494090  46.5474240
  82.3547850  72.1858610  37.0439430  81.5412460  71.6871780  36.9684740
  82.1609800  73.0256860  36.6275780  82.2756710  80.8629710  48.7879040
  82.2094020  79.9425380  48.5336630  81.6461850  80.9605150  49.5023680
  73.6631870  78.4297040  47.6588160  73.3046810  79.0950890  48.2461500
  73.3686430  77.5980590  48.0300780  76.8644990  78.8881280  50.5427710
  76.5645130  79.0338460  49.6455530  77.6356230  78.3286570  50.4501100
  72.1739920  78.4288300  34.2822760  73.0434770  78.7113100  34.5658680
  71.6830240  79.2424170  34.1671570  79.3374730  79.8161510  38.4031040
  79.7937510  80.6266760  38.6291230  78.9862940  79.4984650  39.2349530
  75.2386510  70.1599160  38.8753560  75.1101140  70.1517060  39.8238480
  74.4148530  70.4982250  38.5244570  72.2380440  71.9190280  48.3360260
  71.5238960  72.1187200  48.9412870  72.6575480  71.1429850  48.7075060
  74.1586430  80.2461770  36.4104820  73.5514380  80.9860670  36.4200120
  74.6335780  80.3361130  35.5843020  83.7319220  74.4112590  46.0861710
  84.1000040  73.5907800  46.4141280  82.8717420  74.4714480  46.5017360
  79.0665280  75.6455480  38.3107150  78.3581430  76.1141820  38.7520760
  79.3509760  74.9877490  38.9452340  80.6921210  77.0652180  46.3099680
  81.1906460  77.5398000  46.9751530  80.8344160  76.1415700  46.5169710
  83.0980710  72.3706140  39.7502940  82.9748490  72.3892270  38.8012450
  84.0465270  72.4185080  39.8701340  77.2700300  73.9540560  35.6857860
  78.1190830  74.3910710  35.6198050  76.9031570  74.2660820  36.5129920
  76.1691720  80.2072920  34.1593390  76.9354990  80.0954280  34.7218820
  76.2466410  79.5110890  33.5070160  74.8638480  77.6397990  34.8426280
  74.9442070  76.6925500  34.9543680  75.7558230  77.9704870  34.9486940
  72.3909280  79.4612910  50.0782450  72.8948300  78.8820190  50.6498680
  71.6516700  79.7453140  50.6158820  74.4232360  77.6042500  50.9732520
  74.4637700  77.3056370  51.8817750  75.2777860  78.0050110  50.8140040
  78.2010750  80.2038050  36.1336030  78.6227170  80.0377920  36.9767420
  78.3261590  79.3938280  35.6391170  76.3638170  76.1834600  48.9407010
  75.8334630  75.6925550  48.3130350  77.0326240  76.6118800  48.4064940
  80.7138390  79.2275660  33.3813130  81.2344050  78.5124680  33.0154280
  81.3606790  79.8661530  33.6813640  76.8510470  73.1496970  49.0204300
  76.7567340  72.5317720  48.2955170  76.2707860  73.8763260  48.7934210
  79.6171910  71.7070210  46.0531690  79.1689210  71.7294470  45.2077240
  78.9837110  71.3089230  46.6501990  82.3595360  78.3340720  48.0581970
  82.4791570  77.7381860  48.7976810  83.2189360  78.3710410  47.6383270
  77.0969650  76.2771280  33.0794190  76.8958710  75.4138640  33.4407530
  76.9261700  76.1904640  32.1415790  79.1264130  74.8762070  49.3157790
  79.7163820  74.5677920  50.0035610  78.3084370  74.4041820  49.4717690
  83.9457560  74.4927880  49.5490810  83.2573080  73.8309420  49.4840800
  84.6663580  74.0466150  49.9939270  75.8952450  73.3771900  33.0672070
  76.1978350  73.3839330  32.1591220  76.6347040  73.0269760  33.5639730
  79.1137380  72.3206520  34.0528270  78.7659380  71.6430510  33.4730720
  79.3150150  71.8596030  34.8671660  72.4543020  78.8494170  40.4492640
  71.7991860  78.5805810  39.8052340  73.2920970  78.7398650  39.9994620
  73.4918950  79.2346740  44.9895980  73.8591990  79.1474140  45.8692000
  72.9229770  78.4713290  44.8902840  73.0434950  76.1455830  48.8954400
  72.1491000  76.1122590  49.2348110  73.5832500  76.3442620  49.6605650
  71.6681100  76.0593100  36.3917970  70.7645180  76.3223300  36.2169630
  72.1521720  76.3304270  35.6117930  74.2108310  75.1158640  34.3012350
  74.9200010  74.6941860  33.8159630  73.4948250  75.1833870  33.6695700
  73.8582470  71.1697970  33.3415000  74.5810600  71.7106910  33.6596220
  74.1306990  70.8961390  32.4656540  73.5474660  70.4204160  43.2437620
  74.1950850  69.8701540  42.8032780  73.9676500  70.6747310  44.0653430
  73.3006660  70.5759830  45.9862940  72.9521480  71.0323650  46.7521120
  72.9694360  69.6816960  46.0685370  80.8131480  71.7671710  49.5082360
  80.7520370  72.3593540  50.2577770  81.7531860  71.6597670  49.3632620
  83.4506040  71.4241770  49.1474650  84.0646450  71.7421060  48.4855730
  83.9955600  70.9390360  49.7670510  73.9727300  70.1036030  49.2613710
  74.5210290  69.9224080  48.4979820  74.0382610  69.3130140  49.7970020
  84.1914080  69.9873910  45.4743940  83.3173920  70.3209020  45.2716870
  84.0824830  69.5147090  46.2995810  81.9388900  70.9043750  44.4136850
  81.1560690  71.3789250  44.6933610  81.6451830  69.9998580  44.3050030
  73.2829310  71.2091230  36.9350570  74.0408670  71.3220110  36.3614600
  72.8206480  72.0460430  36.8894000  79.8243120  73.3230500  39.9252880
  79.0117630  72.9487390  39.5848760  80.3284760  72.5675580  40.2274070
  75.6554460  71.7355280  35.4752540  76.1847220  70.9485080  35.3460490
  76.2882780  72.4146470  35.7088070  77.8492300  71.4730420  38.5297930
  77.2195040  70.7717730  38.6968060  77.3097440  72.2334550  38.3131090
  77.9747860  70.7514400  50.9650420  77.6932130  71.2548000  50.2011240
  78.3567560  69.9536150  50.5992550  83.4821470  78.1860450  21.9065630
  83.4015520  77.2715060  21.6357340  83.0685890  78.6827520  21.2005340
  81.6139510  79.9639470  23.7874900  80.8381610  79.4839910  24.0773470
  82.2652440  79.2845120  23.6131060  75.6305340  80.2759280  24.6650660
  74.7990220  80.0207990  25.0647170  76.2386320  80.3470050  25.4008580
  74.0397290  75.2361170  18.4493050  73.1513990  75.5777140  18.3472930
  74.3238480  75.0361490  17.5573880  72.0030300  77.8366820  24.3332750
  72.5746410  77.0689020  24.3336390  72.0031840  78.1355580  23.4239360
  73.2455170  73.2451180  26.1201680  73.0658010  72.3476930  26.4004440
  72.8435250  73.7923050  26.7948630  82.0853670  75.4467040  24.0213990
  82.4618490  74.5738920  23.9087660  81.9873180  75.7825740  23.1304430
  76.2158680  73.8192670  19.4831430  76.3225430  74.7196400  19.7900190
  75.3051040  73.7710640  19.1926080  73.8641840  75.7411680  24.7284020
  74.5451950  76.0050050  25.3471420  73.5489890  74.9012550  25.0622030
  78.0566410  76.7879040  23.8156610  78.5644630  77.2860010  24.4561630
  78.5879650  76.0114240  23.6395970  76.3402510  71.4277600  28.0820030
  76.3420950  71.9449990  27.2765930  75.5106820  70.9507780  28.0589960
  76.0217840  73.1387560  26.0890480  76.3634650  73.9829610  25.7944350
  75.0833650  73.2871300  26.2055820  79.7045730  70.6269830  22.4135070
  80.0120710  70.0716720  21.6970570  78.7746430  70.7614290  22.2308060
  82.0926490  78.6918660  19.1495190  81.1655770  78.6256040  19.3783660
  82.2451310  79.6298790  19.0350430  82.0795570  74.9635660  16.1462350
  81.1399240  75.1249620  16.2314810  82.3978830  75.6821340  15.5998340
  77.6983130  79.2183400  21.9314920  77.2940130  78.5060650  21.4360820
  77.7846250  78.8736640  22.8202960  76.4111750  75.9926610  25.7113960
  76.9626340  76.1021950  24.9367210  76.9255260  76.3664210  26.4269190
  76.0854480  79.5145970  29.3219300  75.9462250  80.3868770  29.6906700
  75.2035840  79.1718780  29.1767240  74.3987760  78.1128380  19.4321570
  74.2785360  78.8390470  18.8202840  74.0888650  77.3431290  18.9549480
  76.8651420  71.4563450  22.8145240  76.4219570  72.2372990  22.4829760
  77.4236410  71.7793340  23.5216180  81.1521230  74.3231970  28.4180560
  80.6900600  74.5314990  29.2300500  80.7499340  73.5091320  28.1151230
  83.2475450  77.0442670  31.6476010  83.5728860  76.2106420  31.3078240
  84.0355780  77.5671190  31.7954340  79.9810240  71.0774150  17.6951070
  79.3564420  71.0734020  18.4204380  79.8940360  70.2105110  17.2987040
  78.9027320  72.0010780  24.6734840  79.1999650  72.9073610  24.5926860
  79.4512880  71.5129560  24.0594410  76.6565640  76.5797020  20.5426490
  76.4306560  76.3634190  21.4473110  75.8758170  77.0125480  20.1972460
  83.8863400  76.5860390  19.1417140  83.2872290  77.3096190  18.9580760
  84.4343010  76.5237170  18.3593590  79.0964850  77.4782600  31.2086760
  79.0008450  76.5377330  31.0587160  79.9396830  77.6997670  30.8134830
  82.4928270  75.2223930  21.1720420  82.8857840  75.5396130  20.3589110
  82.8545120  74.3435810  21.2864940  74.2275390  73.8896270  29.3620540
  73.8338780  74.7371480  29.5693320  73.5393790  73.2522640  29.5529180
  80.8020440  73.9731240  32.4317280  80.1118760  73.7803440  33.0663370
  81.5452740  74.2565880  32.9641580  71.5292440  71.8124730  23.3950620
  71.2405490  72.3827590  24.1075600  72.2738200  71.3329180  23.7581850
  71.7162670  75.7544850  14.6053340  71.6337340  76.6975610  14.7468330
  71.3645730  75.6119760  13.7265690  83.0783410  77.8129680  25.2671200
  82.3464530  78.3216490  25.6161300  82.6807750  76.9959660  24.9659980
  79.5160800  74.4883880  23.6723690  79.5196860  74.0473830  22.8228230
  80.4111920  74.8101210  23.7795510  75.3663180  74.3710370  22.6317900
  75.0263230  74.8485600  23.3884950  74.6040500  73.9175490  22.2719000
  79.5780950  75.4895960  16.6630450  79.6993770  75.4482440  17.6116270
  79.1929460  76.3520110  16.5077180  83.5409320  73.2663360  24.6794140
  83.5582060  73.7172010  25.5235990  83.2924900  72.3669000  24.8927580
  78.5902450  77.7997100  16.0613750  78.0219350  77.3515350  15.4349660
  79.2991450  78.1589880  15.5278900  79.8168770  78.5485660  25.4189100
  80.1838900  78.0744230  26.1650440  79.6273830  79.4227230  25.7597440
  72.6809260  73.2929350  21.5482570  72.3956180  72.9285020  22.3861190
  72.6188120  72.5609810  20.9345710  77.6068140  77.5894300  27.7373310
  77.3025210  78.4686280  27.9623670  78.5614600  77.6494090  27.7730750
  82.3547850  72.1858610  18.2695940  81.5412460  71.6871780  18.1941250
  82.1609800  73.0256860  17.8532290  82.2756710  80.8629710  30.0135550
  82.2094020  79.9425380  29.7593140  81.6461850  80.9605150  30.7280190
  73.6631870  78.4297040  28.8844670  73.3046810  79.0950890  29.4718010
  73.3686430  77.5980590  29.2557290  76.8644990  78.8881280  31.7684220
  76.5645130  79.0338460  30.8712040  77.6356230  78.3286570  31.6757610
  72.1739920  78.4288300  15.5079270  73.0434770  78.7113100  15.7915190
  71.6830240  79.2424170  15.3928080  79.3374730  79.8161510  19.6287550
  79.7937510  80.6266760  19.8547740  78.9862940  79.4984650  20.4606040
  75.2386510  70.1599160  20.1010070  75.1101140  70.1517060  21.0494990
  74.4148530  70.4982250  19.7501080  72.2380440  71.9190280  29.5616770
  71.5238960  72.1187200  30.1669380  72.6575480  71.1429850  29.9331570
  74.1586430  80.2461770  17.6361330  73.5514380  80.9860670  17.6456630
  74.6335780  80.3361130  16.8099530  83.7319220  74.4112590  27.3118220
  84.1000040  73.5907800  27.6397790  82.8717420  74.4714480  27.7273870
  79.0665280  75.6455480  19.5363660  78.3581430  76.1141820  19.9777270
  79.3509760  74.9877490  20.1708850  80.6921210  77.0652180  27.5356190
  81.1906460  77.5398000  28.2008040  80.8344160  76.1415700  27.7426220
  83.0980710  72.3706140  20.9759450  82.9748490  72.3892270  20.0268960
  84.0465270  72.4185080  21.0957850  77.2700300  73.9540560  16.9114370
  78.1190830  74.3910710  16.8454560  76.9031570  74.2660820  17.7386430
  76.1691720  80.2072920  15.3849900  76.9354990  80.0954280  15.9475330
  76.2466410  79.5110890  14.7326670  74.8638480  77.6397990  16.0682790
  74.9442070  76.6925500  16.1800190  75.7558230  77.9704870  16.1743450
  72.3909280  79.4612910  31.3038960  72.8948300  78.8820190  31.8755190
  71.6516700  79.7453140  31.8415330  74.4232360  77.6042500  32.1989030
  74.4637700  77.3056370  33.1074260  75.2777860  78.0050110  32.0396550
  78.2010750  80.2038050  17.3592540  78.6227170  80.0377920  18.2023930
  78.3261590  79.3938280  16.8647680  76.3638170  76.1834600  30.1663520
  75.8334630  75.6925550  29.5386860  77.0326240  76.6118800  29.6321450
  80.7138390  79.2275660  14.6069640  81.2344050  78.5124680  14.2410790
  81.3606790  79.8661530  14.9070150  76.8510470  73.1496970  30.2460810
  76.7567340  72.5317720  29.5211680  76.2707860  73.8763260  30.0190720
  79.6171910  71.7070210  27.2788200  79.1689210  71.7294470  26.4333750
  78.9837110  71.3089230  27.8758500  82.3595360  78.3340720  29.2838480
  82.4791570  77.7381860  30.0233320  83.2189360  78.3710410  28.8639780
  77.0969650  76.2771280  14.3050700  76.8958710  75.4138640  14.6664040
  76.9261700  76.1904640  13.3672300  79.1264130  74.8762070  30.5414300
  79.7163820  74.5677920  31.2292120  78.3084370  74.4041820  30.6974200
  83.9457560  74.4927880  30.7747320  83.2573080  73.8309420  30.7097310
  84.6663580  74.0466150  31.2195780  75.8952450  73.3771900  14.2928580
  76.1978350  73.3839330  13.3847730  76.6347040  73.0269760  14.7896240
  79.1137380  72.3206520  15.2784780  78.7659380  71.6430510  14.6987230
  79.3150150  71.8596030  16.0928170  72.4543020  78.8494170  21.6749150
  71.7991860  78.5805810  21.0308850  73.2920970  78.7398650  21.2251130
  73.4918950  79.2346740  26.2152490  73.8591990  79.1474140  27.0948510
  72.9229770  78.4713290  26.1159350  73.0434950  76.1455830  30.1210910
  72.1491000  76.1122590  30.4604620  73.5832500  76.3442620  30.8862160
  71.6681100  76.0593100  17.6174480  70.7645180  76.3223300  17.4426140
  72.1521720  76.3304270  16.8374440  74.2108310  75.1158640  15.5268860
  74.9200010  74.6941860  15.0416140  73.4948250  75.1833870  14.8952210
  73.8582470  71.1697970  14.5671510  74.5810600  71.7106910  14.8852730
  74.1306990  70.8961390  13.6913050  73.5474660  70.4204160  24.4694130
  74.1950850  69.8701540  24.0289290  73.9676500  70.6747310  25.2909940
  73.3006660  70.5759830  27.2119450  72.9521480  71.0323650  27.9777630
  72.9694360  69.6816960  27.2941880  80.8131480  71.7671710  30.7338870
  80.7520370  72.3593540  31.4834280  81.7531860  71.6597670  30.5889130
  83.4506040  71.4241770  30.3731160  84.0646450  71.7421060  29.7112240
  83.9955600  70.9390360  30.9927020  73.9727300  70.1036030  30.4870220
  74.5210290  69.9224080  29.7236330  74.0382610  69.3130140  31.0226530
  84.1914080  69.9873910  26.7000450  83.3173920  70.3209020  26.4973380
  84.0824830  69.5147090  27.5252320  81.9388900  70.9043750  25.6393360
  81.1560690  71.3789250  25.9190120  81.6451830  69.9998580  25.5306540
  73.2829310  71.2091230  18.1607080  74.0408670  71.3220110  17.5871110
  72.8206480  72.0460430  18.1150510  79.8243120  73.3230500  21.1509390
  79.0117630  72.9487390  20.8105270  80.3284760  72.5675580  21.4530580
  75.6554460  71.7355280  16.7009050  76.1847220  70.9485080  16.5717000
  76.2882780  72.4146470  16.9344580  77.8492300  71.4730420  19.7554440
  77.2195040  70.7717730  19.9224570  77.3097440  72.2334550  19.5387600
  77.9747860  70.7514400  32.1906930  77.6932130  71.2548000  31.4267750
  78.3567560  69.9536150  31.8249060  83.4821470  78.1860450   3.1322140
  83.4015520  77.2715060   2.8613850  83.0685890  78.6827520   2.4261850
  81.6139510  79.9639470   5.0131410  80.8381610  79.4839910   5.3029980
  82.2652440  79.2845120   4.8387570  75.6305340  80.2759280   5.8907170
  74.7990220  80.0207990   6.2903680  76.2386320  80.3470050   6.6265090
  72.0030300  77.8366820   5.5589260  72.5746410  77.0689020   5.5592900
  72.0031840  78.1355580   4.6495870  73.2455170  73.2451180   7.3458190
  73.0658010  72.3476930   7.6260950  72.8435250  73.7923050   8.0205140
  82.0853670  75.4467040   5.2470500  82.4618490  74.5738920   5.1344170
  81.9873180  75.7825740   4.3560940  73.8641840  75.7411680   5.9540530
  74.5451950  76.0050050   6.5727930  73.5489890  74.9012550   6.2878540
  78.0566410  76.7879040   5.0413120  78.5644630  77.2860010   5.6818140
  78.5879650  76.0114240   4.8652480  76.3402510  71.4277600   9.3076540
  76.3420950  71.9449990   8.5022440  75.5106820  70.9507780   9.2846470
  76.0217840  73.1387560   7.3146990  76.3634650  73.9829610   7.0200860
  75.0833650  73.2871300   7.4312330  79.7045730  70.6269830   3.6391580
  80.0120710  70.0716720   2.9227080  78.7746430  70.7614290   3.4564570
  77.6983130  79.2183400   3.1571430  77.2940130  78.5060650   2.6617330
  77.7846250  78.8736640   4.0459470  76.4111750  75.9926610   6.9370470
  76.9626340  76.1021950   6.1623720  76.9255260  76.3664210   7.6525700
  76.0854480  79.5145970  10.5475810  75.9462250  80.3868770  10.9163210
  75.2035840  79.1718780  10.4023750  76.8651420  71.4563450   4.0401750
  76.4219570  72.2372990   3.7086270  77.4236410  71.7793340   4.7472690
  81.1521230  74.3231970   9.6437070  80.6900600  74.5314990  10.4557010
  80.7499340  73.5091320   9.3407740  83.2475450  77.0442670  12.8732520
  83.5728860  76.2106420  12.5334750  84.0355780  77.5671190  13.0210850
  78.9027320  72.0010780   5.8991350  79.1999650  72.9073610   5.8183370
  79.4512880  71.5129560   5.2850920  76.6565640  76.5797020   1.7683000
  76.4306560  76.3634190   2.6729620  75.8758170  77.0125480   1.4228970
  79.0964850  77.4782600  12.4343270  79.0008450  76.5377330  12.2843670
  79.9396830  77.6997670  12.0391340  82.4928270  75.2223930   2.3976930
  82.8857840  75.5396130   1.5845620  82.8545120  74.3435810   2.5121450
  74.2275390  73.8896270  10.5877050  73.8338780  74.7371480  10.7949830
  73.5393790  73.2522640  10.7785690  80.8020440  73.9731240  13.6573790
  80.1118760  73.7803440  14.2919880  81.5452740  74.2565880  14.1898090
  71.5292440  71.8124730   4.6207130  71.2405490  72.3827590   5.3332110
  72.2738200  71.3329180   4.9838360  83.0783410  77.8129680   6.4927710
  82.3464530  78.3216490   6.8417810  82.6807750  76.9959660   6.1916490
  79.5160800  74.4883880   4.8980200  79.5196860  74.0473830   4.0484740
  80.4111920  74.8101210   5.0052020  75.3663180  74.3710370   3.8574410
  75.0263230  74.8485600   4.6141460  74.6040500  73.9175490   3.4975510
  83.5409320  73.2663360   5.9050650  83.5582060  73.7172010   6.7492500
  83.2924900  72.3669000   6.1184090  79.8168770  78.5485660   6.6445610
  80.1838900  78.0744230   7.3906950  79.6273830  79.4227230   6.9853950
  72.6809260  73.2929350   2.7739080  72.3956180  72.9285020   3.6117700
  72.6188120  72.5609810   2.1602220  77.6068140  77.5894300   8.9629820
  77.3025210  78.4686280   9.1880180  78.5614600  77.6494090   8.9987260
  82.2756710  80.8629710  11.2392060  82.2094020  79.9425380  10.9849650
  81.6461850  80.9605150  11.9536700  73.6631870  78.4297040  10.1101180
  73.3046810  79.0950890  10.6974520  73.3686430  77.5980590  10.4813800
  76.8644990  78.8881280  12.9940730  76.5645130  79.0338460  12.0968550
  77.6356230  78.3286570  12.9014120  72.2380440  71.9190280  10.7873280
  71.5238960  72.1187200  11.3925890  72.6575480  71.1429850  11.1588080
  83.7319220  74.4112590   8.5374730  84.1000040  73.5907800   8.8654300
  82.8717420  74.4714480   8.9530380  80.6921210  77.0652180   8.7612700
  81.1906460  77.5398000   9.4264550  80.8344160  76.1415700   8.9682730
  72.3909280  79.4612910  12.5295470  72.8948300  78.8820190  13.1011700
  71.6516700  79.7453140  13.0671840  74.4232360  77.6042500  13.4245540
  74.4637700  77.3056370  14.3330770  75.2777860  78.0050110  13.2653060
  76.3638170  76.1834600  11.3920030  75.8334630  75.6925550  10.7643370
  77.0326240  76.6118800  10.8577960  76.8510470  73.1496970  11.4717320
  76.7567340  72.5317720  10.7468190  76.2707860  73.8763260  11.2447230
  79.6171910  71.7070210   8.5044710  79.1689210  71.7294470   7.6590260
  78.9837110  71.3089230   9.1015010  82.3595360  78.3340720  10.5094990
  82.4791570  77.7381860  11.2489830  83.2189360  78.3710410  10.0896290
  79.1264130  74.8762070  11.7670810  79.7163820  74.5677920  12.4548630
  78.3084370  74.4041820  11.9230710  83.9457560  74.4927880  12.0003830
  83.2573080  73.8309420  11.9353820  84.6663580  74.0466150  12.4452290
  72.4543020  78.8494170   2.9005660  71.7991860  78.5805810   2.2565360
  73.2920970  78.7398650   2.4507640  73.4918950  79.2346740   7.4409000
  73.8591990  79.1474140   8.3205020  72.9229770  78.4713290   7.3415860
  73.0434950  76.1455830  11.3467420  72.1491000  76.1122590  11.6861130
  73.5832500  76.3442620  12.1118670  73.5474660  70.4204160   5.6950640
  74.1950850  69.8701540   5.2545800  73.9676500  70.6747310   6.5166450
  73.3006660  70.5759830   8.4375960  72.9521480  71.0323650   9.2034140
  72.9694360  69.6816960   8.5198390  80.8131480  71.7671710  11.9595380
  80.7520370  72.3593540  12.7090790  81.7531860  71.6597670  11.8145640
  83.4506040  71.4241770  11.5987670  84.0646450  71.7421060  10.9368750
  83.9955600  70.9390360  12.2183530  73.9727300  70.1036030  11.7126730
  74.5210290  69.9224080  10.9492840  74.0382610  69.3130140  12.2483040
  84.1914080  69.9873910   7.9256960  83.3173920  70.3209020   7.7229890
  84.0824830  69.5147090   8.7508830  81.9388900  70.9043750   6.8649870
  81.1560690  71.3789250   7.1446630  81.6451830  69.9998580   6.7563050
  79.8243120  73.3230500   2.3765900  79.0117630  72.9487390   2.0361780
  80.3284760  72.5675580   2.6787090  77.9747860  70.7514400  13.4163440
  77.6932130  71.2548000  12.6524260  78.3567560  69.9536150  13.0505570
  83.4821470  59.4116960  78.2296100  83.4015520  58.4971570  77.9587810
  83.0685890  59.9084030  77.5235810  81.6139510  61.1895980  80.1105370
  80.8381610  60.7096420  80.4003940  82.2652440  60.5101630  79.9361530
  75.6305340  61.5015790  80.9881130  74.7990220  61.2464500  81.3877640
  76.2386320  61.5726560  81.7239050  75.6106600  65.5355880  81.1839150
  75.9134640  64.6453620  81.0049370  76.3550190  66.0926100  80.9561400
  74.0397290  56.4617680  74.7723520  73.1513990  56.8033650  74.6703400
  74.3238480  56.2618000  73.8804350  72.0030300  59.0623330  80.6563220
  72.5746410  58.2945530  80.6566860  72.0031840  59.3612090  79.7469830
  81.8610250  67.8814180  78.5108490  81.2421690  68.3371680  77.9402930
  82.7162030  68.0365640  78.1098190  81.0548500  63.8653170  80.1175530
  80.9856780  62.9243110  79.9564660  81.8168360  63.9554580  80.6898100
  73.2455170  54.4707690  82.4432150  73.0658010  53.5733440  82.7234910
  72.8435250  55.0179560  83.1179100  82.0853670  56.6723550  80.3444460
  82.4618490  55.7995430  80.2318130  81.9873180  57.0082250  79.4534900
  76.2158680  55.0449180  75.8061900  76.3225430  55.9452910  76.1130660
  75.3051040  54.9967150  75.5156550  73.8641840  56.9668190  81.0514490
  74.5451950  57.2306560  81.6701890  73.5489890  56.1269060  81.3852500
  78.0566410  58.0135550  80.1387080  78.5644630  58.5116520  80.7792100
  78.5879650  57.2370750  79.9626440  82.7273600  62.7653420  75.9040400
  82.1090870  63.2302870  75.3403120  83.2396850  63.4580900  76.3209910
  77.5905360  62.2929290  82.5824000  77.2574740  62.9198210  83.2245070
  77.7672040  62.8191170  81.8025670  76.0217840  54.3644070  82.4120950
  76.3634650  55.2086120  82.1174820  75.0833650  54.5127810  82.5286290
  72.0956800  63.4509950  73.2780030  71.7184780  63.9397050  72.5464930
  72.3529870  64.1235230  73.9086560  79.7045730  51.8526340  78.7365540
  80.0120710  51.2973230  78.0201040  78.7746430  51.9870800  78.5538530
  82.0926490  59.9175170  75.4725660  81.1655770  59.8512550  75.7014130
  82.2451310  60.8555300  75.3580900  82.0795570  56.1892170  72.4692820
  81.1399240  56.3506130  72.5545280  82.3978830  56.9077850  71.9228810
  77.6983130  60.4439910  78.2545390  77.2940130  59.7317160  77.7591290
  77.7846250  60.0993150  79.1433430  78.1664830  64.1307470  80.4184600
  77.8693120  63.5252940  79.7392380  79.1164650  64.1684780  80.3073960
  76.4111750  57.2183120  82.0344430  76.9626340  57.3278460  81.2597680
  76.9255260  57.5920720  82.7499660  82.4083860  65.6578350  76.9514900
  82.8479770  66.4002680  76.5370290  82.3470750  65.9004920  77.8753860
  74.3987760  59.3384890  75.7552040  74.2785360  60.0646980  75.1433310
  74.0888650  58.5687800  75.2779950  72.0373130  62.5100030  81.5620680
  72.1153550  62.6448800  80.6176400  72.6514810  61.8015920  81.7548800
  73.2820760  64.2100220  77.9726860  72.8748840  64.3514810  77.1180460
  74.1733770  63.9260380  77.7698070  77.5542420  68.4246000  76.0849530
  77.3784900  67.5081540  75.8717330  76.6998160  68.7833290  76.3247330
  84.3430100  67.7797740  76.9424400  84.7987050  66.9987120  77.2563020
  84.6822620  68.4904560  77.4865580  76.8651420  52.6819960  79.1375710
  76.4219570  53.4629500  78.8060230  77.4236410  53.0049850  79.8446650
  79.9810240  52.3030660  74.0181540  79.3564420  52.2990530  74.7434850
  79.8940360  51.4361620  73.6217510  78.9027320  53.2267290  80.9965310
  79.1999650  54.1330120  80.9157330  79.4512880  52.7386070  80.3824880
  76.6565640  57.8053530  76.8656960  76.4306560  57.5890700  77.7703580
  75.8758170  58.2381990  76.5202930  83.8863400  57.8116900  75.4647610
  83.2872290  58.5352700  75.2811230  84.4343010  57.7493680  74.6824060
  82.4928270  56.4480440  77.4950890  82.8857840  56.7652640  76.6819580
  82.8545120  55.5692320  77.6095410  71.5292440  53.0381240  79.7181090
  71.2405490  53.6084100  80.4306070  72.2738200  52.5585690  80.0812320
  71.7162670  56.9801360  70.9283810  71.6337340  57.9232120  71.0698800
  71.3645730  56.8376270  70.0496160  83.0783410  59.0386190  81.5901670
  82.3464530  59.5473000  81.9391770  82.6807750  58.2216170  81.2890450
  79.5160800  55.7140390  79.9954160  79.5196860  55.2730340  79.1458700
  80.4111920  56.0357720  80.1025980  75.3663180  55.5966880  78.9548370
  75.0263230  56.0742110  79.7115420  74.6040500  55.1432000  78.5949470
  79.5780950  56.7152470  72.9860920  79.6993770  56.6738950  73.9346740
  79.1929460  57.5776620  72.8307650  83.5409320  54.4919870  81.0024610
  83.5582060  54.9428520  81.8466460  83.2924900  53.5925510  81.2158050
  78.5902450  59.0253610  72.3844220  78.0219350  58.5771860  71.7580130
  79.2991450  59.3846390  71.8509370  79.8168770  59.7742170  81.7419570
  80.1838900  59.3000740  82.4880910  79.6273830  60.6483740  82.0827910
  72.6809260  54.5185860  77.8713040  72.3956180  54.1541530  78.7091660
  72.6188120  53.7866320  77.2576180  76.1349930  63.0211800  74.6570630
  75.3612190  62.4809420  74.4969350  76.8644560  62.5018410  74.3188390
  82.3547850  53.4115120  74.5926410  81.5412460  52.9128290  74.5171720
  82.1609800  54.2513370  74.1762760  76.1787330  62.6892180  78.2949440
  76.6966000  61.8860440  78.2406330  75.7271350  62.6271320  79.1366270
  81.0656830  63.9558460  73.5676740  81.4072530  64.7000690  73.0720060
  80.2369540  64.2689580  73.9301570  83.9484240  63.2774300  78.9322250
  84.3008060  62.6802430  78.2723620  83.0646570  62.9518530  79.1030500
  80.0347520  64.0371990  76.3392660  80.7218650  64.5841200  76.7200250
  79.2479940  64.5812720  76.3742270  72.1739920  59.6544810  71.8309740
  73.0434770  59.9369610  72.1145660  71.6830240  60.4680680  71.7158550
  79.3374730  61.0418020  75.9518020  79.7937510  61.8523270  76.1778210
  78.9862940  60.7241160  76.7836510  75.2386510  51.3855670  76.4240540
  75.1101140  51.3773570  77.3725460  74.4148530  51.7238760  76.0731550
  82.9139420  64.5556710  81.8987770  83.5561650  63.8549870  82.0119940
  83.4388770  65.3355150  81.7184660  72.5411170  68.8672190  72.3971370
  72.9008810  69.4661530  71.7428640  72.4003510  69.4132080  73.1706400
  78.5579790  66.2503390  73.2145040  78.5489890  66.9833080  72.5989550
  77.6378150  66.0034970  73.3072000  74.1586430  61.4718280  73.9591800
  73.5514380  62.2117180  73.9687100  74.6335780  61.5617640  73.1330000
  81.5439390  66.3131630  71.8770230  81.6451370  66.1095620  70.9472210
  80.6441130  66.0589910  72.0818010  79.0665280  56.8711990  75.8594130
  78.3581430  57.3398330  76.3007740  79.3509760  56.2134000  76.4939320
  83.0980710  53.5962650  77.2989920  82.9748490  53.6148780  76.3499430
  84.0465270  53.6441590  77.4188320  80.1857500  68.8317950  76.5717900
  80.4399000  68.7939340  75.6497270  79.2369980  68.7051280  76.5646150
  77.2700300  55.1797070  73.2344840  78.1190830  55.6167220  73.1685030
  76.9031570  55.4917330  74.0616900  76.1691720  61.4329430  71.7080370
  76.9354990  61.3210790  72.2705800  76.2466410  60.7367400  71.0557140
  74.8638480  58.8654500  72.3913260  74.9442070  57.9182010  72.5030660
  75.7558230  59.1961380  72.4973920  75.6653190  69.0149890  79.4947800
  76.4015670  68.4665350  79.7656370  76.0494110  69.8805900  79.3553790
  72.5498670  65.0823460  75.3689310  71.6238450  65.3244600  75.3594720
  73.0155100  65.9097720  75.2474060  78.7755500  68.1880200  71.3173370
  79.5684110  68.4769030  70.8655160  78.2559850  67.7572370  70.6385850
  79.2932900  63.4083610  71.1815720  79.1883540  62.7935960  71.9077100
  79.1257120  62.8849500  70.3978730  82.5335630  62.4703640  71.7857710
  81.9845730  62.9172940  72.4300450  83.1554890  61.9652890  72.3095380
  78.2010750  61.4294560  73.6823010  78.6227170  61.2634430  74.5254400
  78.3261590  60.6194790  73.1878150  80.7138390  60.4532170  70.9300110
  81.2344050  59.7381190  70.5641260  81.3606790  61.0918040  71.2300620
  77.0969650  57.5027790  70.6281170  76.8958710  56.6395150  70.9894510
  76.9261700  57.4161150  69.6902770  75.8952450  54.6028410  70.6159050
  76.1978350  54.6095840  69.7078200  76.6347040  54.2526270  71.1126710
  79.1137380  53.5463030  71.6015250  78.7659380  52.8687020  71.0217700
  79.3150150  53.0852540  72.4158640  81.2786420  68.5343780  73.2201850
  82.1737210  68.8728750  73.2420610  81.3104050  67.8123190  72.5926130
  74.9182580  63.9070830  71.4488850  75.3557450  64.4500500  72.1046430
  75.4030310  63.0817780  71.4585190  72.1328380  66.6959860  78.9009110
  72.4631390  65.8280920  78.6687750  72.5619380  66.9018380  79.7314070
  76.7290300  65.0268870  76.5611080  76.4285840  64.9033840  77.4614990
  76.6227790  64.1677460  76.1526810  72.6218590  67.5630450  81.6390740
  72.1849580  67.7431250  82.4714890  73.1896270  68.3205070  81.4972460
  72.4543020  60.0750680  77.9979620  71.7991860  59.8062320  77.3539320
  73.2920970  59.9655160  77.5481600  71.6681100  57.2849610  73.9404950
  70.7645180  57.5479810  73.7656610  72.1521720  57.5560780  73.1604910
  74.2108310  56.3415150  71.8499330  74.9200010  55.9198370  71.3646610
  73.4948250  56.4090380  71.2182680  73.8582470  52.3954480  70.8901980
  74.5810600  52.9363420  71.2083200  74.1306990  52.1217900  70.0143520
  73.5474660  51.6460670  80.7924600  74.1950850  51.0958050  80.3519760
  73.9676500  51.9003820  81.6140410  77.9816390  67.5001570  80.5558340
  78.4981410  66.8888930  80.0306600  78.6313770  68.0030350  81.0469350
  80.7211890  68.3910060  81.3827320  81.0089700  68.1364360  80.5060330
  81.2335110  67.8387420  81.9732890  81.9388900  52.1300260  81.9623830
  81.1560690  52.6045760  82.2420590  81.6451830  51.2255090  81.8537010
  72.6601290  68.6030960  76.9805690  72.4923330  67.9701640  77.6787580
  71.7935800  68.8090360  76.6299880  73.2829310  52.4347740  74.4837550
  74.0408670  52.5476620  73.9101580  72.8206480  53.2716940  74.4380980
  79.8243120  54.5487010  77.4739860  79.0117630  54.1743900  77.1335740
  80.3284760  53.7932090  77.7761050  74.2663990  67.2964190  74.4255830
  73.7411610  67.6772220  73.7217790  74.1908570  67.9214960  75.1465540
  75.6554460  52.9611790  73.0239520  76.1847220  52.1741590  72.8947470
  76.2882780  53.6402980  73.2575050  77.8492300  52.6986930  76.0784910
  77.2195040  51.9974240  76.2455040  77.3097440  53.4591060  75.8618070
  76.8656960  69.2446570  73.3005080  77.5975780  68.9605850  72.7528970
  77.1250630  69.0059850  74.1904460  76.0271750  65.3611300  73.3051410
  75.3980630  65.8296400  73.8537240  76.1419580  64.5160520  73.7397600
  83.4821470  59.4116960  59.4552610  83.4015520  58.4971570  59.1844320
  83.0685890  59.9084030  58.7492320  81.6139510  61.1895980  61.3361880
  80.8381610  60.7096420  61.6260450  82.2652440  60.5101630  61.1618040
  75.6305340  61.5015790  62.2137640  74.7990220  61.2464500  62.6134150
  76.2386320  61.5726560  62.9495560  75.6106600  65.5355880  62.4095660
  75.9134640  64.6453620  62.2305880  76.3550190  66.0926100  62.1817910
  74.0397290  56.4617680  55.9980030  73.1513990  56.8033650  55.8959910
  74.3238480  56.2618000  55.1060860  72.0030300  59.0623330  61.8819730
  72.5746410  58.2945530  61.8823370  72.0031840  59.3612090  60.9726340
  81.8610250  67.8814180  59.7365000  81.2421690  68.3371680  59.1659440
  82.7162030  68.0365640  59.3354700  81.0548500  63.8653170  61.3432040
  80.9856780  62.9243110  61.1821170  81.8168360  63.9554580  61.9154610
  73.2455170  54.4707690  63.6688660  73.0658010  53.5733440  63.9491420
  72.8435250  55.0179560  64.3435610  82.0853670  56.6723550  61.5700970
  82.4618490  55.7995430  61.4574640  81.9873180  57.0082250  60.6791410
  76.2158680  55.0449180  57.0318410  76.3225430  55.9452910  57.3387170
  75.3051040  54.9967150  56.7413060  73.8641840  56.9668190  62.2771000
  74.5451950  57.2306560  62.8958400  73.5489890  56.1269060  62.6109010
  78.0566410  58.0135550  61.3643590  78.5644630  58.5116520  62.0048610
  78.5879650  57.2370750  61.1882950  76.3402510  52.6534110  65.6307010
  76.3420950  53.1706500  64.8252910  75.5106820  52.1764290  65.6076940
  82.7273600  62.7653420  57.1296910  82.1090870  63.2302870  56.5659630
  83.2396850  63.4580900  57.5466420  77.5905360  62.2929290  63.8080510
  77.2574740  62.9198210  64.4501580  77.7672040  62.8191170  63.0282180
  76.0217840  54.3644070  63.6377460  76.3634650  55.2086120  63.3431330
  75.0833650  54.5127810  63.7542800  76.8024460  64.2610090  65.6229690
  77.4198460  64.9361170  65.3414140  75.9417580  64.6698070  65.5317190
  72.0956800  63.4509950  54.5036540  71.7184780  63.9397050  53.7721440
  72.3529870  64.1235230  55.1343070  79.7045730  51.8526340  59.9622050
  80.0120710  51.2973230  59.2457550  78.7746430  51.9870800  59.7795040
  82.0926490  59.9175170  56.6982170  81.1655770  59.8512550  56.9270640
  82.2451310  60.8555300  56.5837410  82.0795570  56.1892170  53.6949330
  81.1399240  56.3506130  53.7801790  82.3978830  56.9077850  53.1485320
  77.6983130  60.4439910  59.4801900  77.2940130  59.7317160  58.9847800
  77.7846250  60.0993150  60.3689940  78.1664830  64.1307470  61.6441110
  77.8693120  63.5252940  60.9648890  79.1164650  64.1684780  61.5330470
  76.4111750  57.2183120  63.2600940  76.9626340  57.3278460  62.4854190
  76.9255260  57.5920720  63.9756170  77.2583260  63.8689160  68.2948910
  76.3611790  64.0929130  68.5422310  77.2836130  63.9924100  67.3460310
  76.0854480  60.7402480  66.8706280  75.9462250  61.6125280  67.2393680
  75.2035840  60.3975290  66.7254220  82.4083860  65.6578350  58.1771410
  82.8479770  66.4002680  57.7626800  82.3470750  65.9004920  59.1010370
  77.8834830  66.6824180  69.0791430  77.8550260  67.0867130  68.2119860
  77.7199800  65.7534540  68.9163030  74.3987760  59.3384890  56.9808550
  74.2785360  60.0646980  56.3689820  74.0888650  58.5687800  56.5036460
  72.0373130  62.5100030  62.7877190  72.1153550  62.6448800  61.8432910
  72.6514810  61.8015920  62.9805310  73.2820760  64.2100220  59.1983370
  72.8748840  64.3514810  58.3436970  74.1733770  63.9260380  58.9954580
  83.0999640  68.3592130  66.1050420  83.6144310  68.2700140  66.9072850
  82.2568720  68.7051830  66.3978330  77.5542420  68.4246000  57.3106040
  77.3784900  67.5081540  57.0973840  76.6998160  68.7833290  57.5503840
  84.3430100  67.7797740  58.1680910  84.7987050  66.9987120  58.4819530
  84.6822620  68.4904560  58.7122090  72.0932650  63.5514200  65.3271650
  72.2563690  63.0819560  64.5091020  72.5585100  63.0437760  65.9920490
  76.8651420  52.6819960  60.3632220  76.4219570  53.4629500  60.0316740
  77.4236410  53.0049850  61.0703160  81.1521230  55.5488480  65.9667540
  80.6900600  55.7571500  66.7787480  80.7499340  54.7347830  65.6638210
  83.2475450  58.2699180  69.1962990  83.5728860  57.4362930  68.8565220
  84.0355780  58.7927700  69.3441320  79.9810240  52.3030660  55.2438050
  79.3564420  52.2990530  55.9691360  79.8940360  51.4361620  54.8474020
  78.9027320  53.2267290  62.2221820  79.1999650  54.1330120  62.1413840
  79.4512880  52.7386070  61.6081390  76.6565640  57.8053530  58.0913470
  76.4306560  57.5890700  58.9960090  75.8758170  58.2381990  57.7459440
  83.8863400  57.8116900  56.6904120  83.2872290  58.5352700  56.5067740
  84.4343010  57.7493680  55.9080570  79.0964850  58.7039110  68.7573740
  79.0008450  57.7633840  68.6074140  79.9396830  58.9254180  68.3621810
  82.4928270  56.4480440  58.7207400  82.8857840  56.7652640  57.9076090
  82.8545120  55.5692320  58.8351920  74.2275390  55.1152780  66.9107520
  73.8338780  55.9627990  67.1180300  73.5393790  54.4779150  67.1016160
  80.8020440  55.1987750  69.9804260  80.1118760  55.0059950  70.6150350
  81.5452740  55.4822390  70.5128560  71.5292440  53.0381240  60.9437600
  71.2405490  53.6084100  61.6562580  72.2738200  52.5585690  61.3068830
  71.7162670  56.9801360  52.1540320  71.6337340  57.9232120  52.2955310
  71.3645730  56.8376270  51.2752670  83.0783410  59.0386190  62.8158180
  82.3464530  59.5473000  63.1648280  82.6807750  58.2216170  62.5146960
  79.5160800  55.7140390  61.2210670  79.5196860  55.2730340  60.3715210
  80.4111920  56.0357720  61.3282490  75.3663180  55.5966880  60.1804880
  75.0263230  56.0742110  60.9371930  74.6040500  55.1432000  59.8205980
  79.5780950  56.7152470  54.2117430  79.6993770  56.6738950  55.1603250
  79.1929460  57.5776620  54.0564160  83.5409320  54.4919870  62.2281120
  83.5582060  54.9428520  63.0722970  83.2924900  53.5925510  62.4414560
  78.5902450  59.0253610  53.6100730  78.0219350  58.5771860  52.9836640
  79.2991450  59.3846390  53.0765880  73.6671630  62.9265630  67.4867460
  73.2826420  62.2859300  68.0850420  73.9783820  63.6301750  68.0562190
  79.8168770  59.7742170  62.9676080  80.1838900  59.3000740  63.7137420
  79.6273830  60.6483740  63.3084420  72.6809260  54.5185860  59.0969550
  72.3956180  54.1541530  59.9348170  72.6188120  53.7866320  58.4832690
  77.6068140  58.8150810  65.2860290  77.3025210  59.6942790  65.5110650
  78.5614600  58.8750600  65.3217730  76.1349930  63.0211800  55.8827140
  75.3612190  62.4809420  55.7225860  76.8644560  62.5018410  55.5444900
  82.3547850  53.4115120  55.8182920  81.5412460  52.9128290  55.7428230
  82.1609800  54.2513370  55.4019270  82.2756710  62.0886220  67.5622530
  82.2094020  61.1681890  67.3080120  81.6461850  62.1861660  68.2767170
  76.1787330  62.6892180  59.5205950  76.6966000  61.8860440  59.4662840
  75.7271350  62.6271320  60.3622780  81.0656830  63.9558460  54.7933250
  81.4072530  64.7000690  54.2976570  80.2369540  64.2689580  55.1558080
  73.6631870  59.6553550  66.4331650  73.3046810  60.3207400  67.0204990
  73.3686430  58.8237100  66.8044270  76.8644990  60.1137790  69.3171200
  76.5645130  60.2594970  68.4199020  77.6356230  59.5543080  69.2244590
  82.2073440  64.9106790  67.3126330  82.2217980  63.9787750  67.0945240
  81.4998540  64.9966550  67.9516100  83.9484240  63.2774300  60.1578760
  84.3008060  62.6802430  59.4980130  83.0646570  62.9518530  60.3287010
  80.0347520  64.0371990  57.5649170  80.7218650  64.5841200  57.9456760
  79.2479940  64.5812720  57.5998780  72.1739920  59.6544810  53.0566250
  73.0434770  59.9369610  53.3402170  71.6830240  60.4680680  52.9415060
  79.3374730  61.0418020  57.1774530  79.7937510  61.8523270  57.4034720
  78.9862940  60.7241160  58.0093020  81.6407340  66.5524360  64.4066830
  82.2849560  66.7583740  65.0840250  82.0036780  65.7912760  63.9537680
  75.2386510  51.3855670  57.6497050  75.1101140  51.3773570  58.5981970
  74.4148530  51.7238760  57.2988060  82.9139420  64.5556710  63.1244280
  83.5561650  63.8549870  63.2376450  83.4388770  65.3355150  62.9441170
  72.5411170  68.8672190  53.6227880  72.9008810  69.4661530  52.9685150
  72.4003510  69.4132080  54.3962910  72.2380440  53.1446790  67.1103750
  71.5238960  53.3443710  67.7156360  72.6575480  52.3686360  67.4818550
  72.5253030  67.1327050  68.0970280  72.6344150  66.1921790  67.9565670
  71.8733590  67.3981800  67.4484010  80.5165620  65.4042940  69.4968400
  80.1962490  64.6852180  70.0414090  79.8423980  66.0798010  69.5704460
  78.5579790  66.2503390  54.4401550  78.5489890  66.9833080  53.8246060
  77.6378150  66.0034970  54.5328510  74.1586430  61.4718280  55.1848310
  73.5514380  62.2117180  55.1943610  74.6335780  61.5617640  54.3586510
  83.7319220  55.6369100  64.8605200  84.1000040  54.8164310  65.1884770
  82.8717420  55.6970990  65.2760850  81.5439390  66.3131630  53.1026740
  81.6451370  66.1095620  52.1728720  80.6441130  66.0589910  53.3074520
  79.0665280  56.8711990  57.0850640  78.3581430  57.3398330  57.5264250
  79.3509760  56.2134000  57.7195830  80.6921210  58.2908690  65.0843170
  81.1906460  58.7654510  65.7495020  80.8344160  57.3672210  65.2913200
  83.0980710  53.5962650  58.5246430  82.9748490  53.6148780  57.5755940
  84.0465270  53.6441590  58.6444830  80.1857500  68.8317950  57.7974410
  80.4399000  68.7939340  56.8753780  79.2369980  68.7051280  57.7902660
  77.2700300  55.1797070  54.4601350  78.1190830  55.6167220  54.3941540
  76.9031570  55.4917330  55.2873410  76.1691720  61.4329430  52.9336880
  76.9354990  61.3210790  53.4962310  76.2466410  60.7367400  52.2813650
  74.8638480  58.8654500  53.6169770  74.9442070  57.9182010  53.7287170
  75.7558230  59.1961380  53.7230430  75.6653190  69.0149890  60.7204310
  76.4015670  68.4665350  60.9912880  76.0494110  69.8805900  60.5810300
  72.5498670  65.0823460  56.5945820  71.6238450  65.3244600  56.5851230
  73.0155100  65.9097720  56.4730570  74.6711470  68.1995960  69.9089890
  75.4724200  68.5208010  70.3225290  74.1563290  67.8391540  70.6309800
  78.7755500  68.1880200  52.5429880  79.5684110  68.4769030  52.0911670
  78.2559850  67.7572370  51.8642360  83.5076100  64.3075830  69.8565300
  82.9014260  64.3307430  69.1161050  83.2030210  63.5758870  70.3932550
  72.3909280  60.6869420  68.8525940  72.8948300  60.1076700  69.4242170
  71.6516700  60.9709650  69.3902310  79.2932900  63.4083610  52.4072230
  79.1883540  62.7935960  53.1333610  79.1257120  62.8849500  51.6235240
  79.4447220  62.0940410  68.3861460  78.6792890  62.6625410  68.3016130
  79.6263180  61.8016620  67.4929690  82.5335630  62.4703640  53.0114220
  81.9845730  62.9172940  53.6556960  83.1554890  61.9652890  53.5351890
  74.4232360  58.8299010  69.7476010  74.4637700  58.5312880  70.6561240
  75.2777860  59.2306620  69.5883530  78.2010750  61.4294560  54.9079520
  78.6227170  61.2634430  55.7510910  78.3261590  60.6194790  54.4134660
  76.3638170  57.4091110  67.7150500  75.8334630  56.9182060  67.0873840
  77.0326240  57.8375310  67.1808430  80.7138390  60.4532170  52.1556620
  81.2344050  59.7381190  51.7897770  81.3606790  61.0918040  52.4557130
  76.8510470  54.3753480  67.7947790  76.7567340  53.7574230  67.0698660
  76.2707860  55.1019770  67.5677700  79.6171910  52.9326720  64.8275180
  79.1689210  52.9550980  63.9820730  78.9837110  52.5345740  65.4245480
  80.0231460  61.8281050  65.4487620  80.4419570  62.6713780  65.2763860
  79.1040090  61.9653090  65.2194400  82.3595360  59.5597230  66.8325460
  82.4791570  58.9638370  67.5720300  83.2189360  59.5966920  66.4126760
  77.0969650  57.5027790  51.8537680  76.8958710  56.6395150  52.2151020
  76.9261700  57.4161150  50.9159280  77.8738880  68.1334060  66.5645350
  77.3359970  68.8580120  66.2454050  78.1272840  67.6564400  65.7742690
  79.1264130  56.1018580  68.0901280  79.7163820  55.7934430  68.7779100
  78.3084370  55.6298330  68.2461180  83.9457560  55.7184390  68.3234300
  83.2573080  55.0565930  68.2584290  84.6663580  55.2722660  68.7682760
  75.8952450  54.6028410  51.8415560  76.1978350  54.6095840  50.9334710
  76.6347040  54.2526270  52.3383220  80.7301090  69.3685270  66.8232000
  80.6559790  70.2720410  67.1304370  79.8279930  69.0497170  66.7954070
  79.1137380  53.5463030  52.8271760  78.7659380  52.8687020  52.2474210
  79.3150150  53.0852540  53.6415150  81.2786420  68.5343780  54.4458360
  82.1737210  68.8728750  54.4677120  81.3104050  67.8123190  53.8182640
  74.9182580  63.9070830  52.6745360  75.3557450  64.4500500  53.3302940
  75.4030310  63.0817780  52.6841700  72.1328380  66.6959860  60.1265620
  72.4631390  65.8280920  59.8944260  72.5619380  66.9018380  60.9570580
  76.7290300  65.0268870  57.7867590  76.4285840  64.9033840  58.6871500
  76.6227790  64.1677460  57.3783320  72.6218590  67.5630450  62.8647250
  72.1849580  67.7431250  63.6971400  73.1896270  68.3205070  62.7228970
  72.4543020  60.0750680  59.2236130  71.7991860  59.8062320  58.5795830
  73.2920970  59.9655160  58.7738110  73.4918950  60.4603250  63.7639470
  73.8591990  60.3730650  64.6435490  72.9229770  59.6969800  63.6646330
  73.0434950  57.3712340  67.6697890  72.1491000  57.3379100  68.0091600
  73.5832500  57.5699130  68.4349140  71.6681100  57.2849610  55.1661460
  70.7645180  57.5479810  54.9913120  72.1521720  57.5560780  54.3861420
  74.2108310  56.3415150  53.0755840  74.9200010  55.9198370  52.5903120
  73.4948250  56.4090380  52.4439190  73.8582470  52.3954480  52.1158490
  74.5810600  52.9363420  52.4339710  74.1306990  52.1217900  51.2400030
  73.5474660  51.6460670  62.0181110  74.1950850  51.0958050  61.5776270
  73.9676500  51.9003820  62.8396920  73.3006660  51.8016340  64.7606430
  72.9521480  52.2580160  65.5264610  72.9694360  50.9073470  64.8428860
  74.9071030  64.9735940  68.9259620  74.8640660  64.6028850  69.8074080
  75.0382040  65.9113510  69.0661440  78.6077060  66.5295530  64.5269340
  78.3668420  66.7970090  63.6399860  79.5479700  66.7001260  64.5820200
  80.8131480  52.9928220  68.2825850  80.7520370  53.5850050  69.0321260
  81.7531860  52.8854180  68.1376110  83.4506040  52.6498280  67.9218140
  84.0646450  52.9677570  67.2599220  83.9955600  52.1646870  68.5414000
  73.9727300  51.3292540  68.0357200  74.5210290  51.1480590  67.2723310
  74.0382610  50.5386650  68.5713510  74.7459060  67.9198190  66.0457400
  74.1519380  67.7882890  66.7847440  74.7382900  67.0836330  65.5799500
  84.1914080  51.2130420  64.2487430  83.3173920  51.5465530  64.0460360
  84.0824830  50.7403600  65.0739300  74.3771290  65.2856570  64.9965440
  73.6505350  64.6661860  64.9291390  74.4380440  65.6797180  64.1263520
  77.9816390  67.5001570  61.7814850  78.4981410  66.8888930  61.2563110
  78.6313770  68.0030350  62.2725860  80.7211890  68.3910060  62.6083830
  81.0089700  68.1364360  61.7316840  81.2335110  67.8387420  63.1989400
  81.9388900  52.1300260  63.1880340  81.1560690  52.6045760  63.4677100
  81.6451830  51.2255090  63.0793520  72.6601290  68.6030960  58.2062200
  72.4923330  67.9701640  58.9044090  71.7935800  68.8090360  57.8556390
  73.2829310  52.4347740  55.7094060  74.0408670  52.5476620  55.1358090
  72.8206480  53.2716940  55.6637490  79.8243120  54.5487010  58.6996370
  79.0117630  54.1743900  58.3592250  80.3284760  53.7932090  59.0017560
  74.2663990  67.2964190  55.6512340  73.7411610  67.6772220  54.9474300
  74.1908570  67.9214960  56.3722050  75.6554460  52.9611790  54.2496030
  76.1847220  52.1741590  54.1203980  76.2882780  53.6402980  54.4831560
  77.8492300  52.6986930  57.3041420  77.2195040  51.9974240  57.4711550
  77.3097440  53.4591060  57.0874580  80.7884250  69.3126160  69.9752030
  81.7151560  69.0770430  70.0187990  80.7734680  70.1398160  69.4938060
  77.9747860  51.9770910  69.7393910  77.6932130  52.4804510  68.9754730
  78.3567560  51.1792660  69.3736040  76.8656960  69.2446570  54.5261590
  77.5975780  68.9605850  53.9785480  77.1250630  69.0059850  55.4160970
  76.0271750  65.3611300  54.5307920  75.3980630  65.8296400  55.0793750
  76.1419580  64.5160520  54.9654110  83.4821470  59.4116960  40.6809120
  83.4015520  58.4971570  40.4100830  83.0685890  59.9084030  39.9748830
  81.6139510  61.1895980  42.5618390  80.8381610  60.7096420  42.8516960
  82.2652440  60.5101630  42.3874550  75.6305340  61.5015790  43.4394150
  74.7990220  61.2464500  43.8390660  76.2386320  61.5726560  44.1752070
  75.6106600  65.5355880  43.6352170  75.9134640  64.6453620  43.4562390
  76.3550190  66.0926100  43.4074420  74.0397290  56.4617680  37.2236540
  73.1513990  56.8033650  37.1216420  74.3238480  56.2618000  36.3317370
  72.0030300  59.0623330  43.1076240  72.5746410  58.2945530  43.1079880
  72.0031840  59.3612090  42.1982850  81.8610250  67.8814180  40.9621510
  81.2421690  68.3371680  40.3915950  82.7162030  68.0365640  40.5611210
  81.0548500  63.8653170  42.5688550  80.9856780  62.9243110  42.4077680
  81.8168360  63.9554580  43.1411120  73.2455170  54.4707690  44.8945170
  73.0658010  53.5733440  45.1747930  72.8435250  55.0179560  45.5692120
  82.0853670  56.6723550  42.7957480  82.4618490  55.7995430  42.6831150
  81.9873180  57.0082250  41.9047920  76.2158680  55.0449180  38.2574920
  76.3225430  55.9452910  38.5643680  75.3051040  54.9967150  37.9669570
  73.8641840  56.9668190  43.5027510  74.5451950  57.2306560  44.1214910
  73.5489890  56.1269060  43.8365520  78.0566410  58.0135550  42.5900100
  78.5644630  58.5116520  43.2305120  78.5879650  57.2370750  42.4139460
  76.3402510  52.6534110  46.8563520  76.3420950  53.1706500  46.0509420
  75.5106820  52.1764290  46.8333450  82.7273600  62.7653420  38.3553420
  82.1090870  63.2302870  37.7916140  83.2396850  63.4580900  38.7722930
  77.5905360  62.2929290  45.0337020  77.2574740  62.9198210  45.6758090
  77.7672040  62.8191170  44.2538690  76.0217840  54.3644070  44.8633970
  76.3634650  55.2086120  44.5687840  75.0833650  54.5127810  44.9799310
  76.8024460  64.2610090  46.8486200  77.4198460  64.9361170  46.5670650
  75.9417580  64.6698070  46.7573700  72.0956800  63.4509950  35.7293050
  71.7184780  63.9397050  34.9977950  72.3529870  64.1235230  36.3599580
  79.7045730  51.8526340  41.1878560  80.0120710  51.2973230  40.4714060
  78.7746430  51.9870800  41.0051550  82.0926490  59.9175170  37.9238680
  81.1655770  59.8512550  38.1527150  82.2451310  60.8555300  37.8093920
  82.0795570  56.1892170  34.9205840  81.1399240  56.3506130  35.0058300
  82.3978830  56.9077850  34.3741830  77.6983130  60.4439910  40.7058410
  77.2940130  59.7317160  40.2104310  77.7846250  60.0993150  41.5946450
  78.1664830  64.1307470  42.8697620  77.8693120  63.5252940  42.1905400
  79.1164650  64.1684780  42.7586980  76.4111750  57.2183120  44.4857450
  76.9626340  57.3278460  43.7110700  76.9255260  57.5920720  45.2012680
  77.2583260  63.8689160  49.5205420  76.3611790  64.0929130  49.7678820
  77.2836130  63.9924100  48.5716820  76.0854480  60.7402480  48.0962790
  75.9462250  61.6125280  48.4650190  75.2035840  60.3975290  47.9510730
  82.4083860  65.6578350  39.4027920  82.8479770  66.4002680  38.9883310
  82.3470750  65.9004920  40.3266880  77.8834830  66.6824180  50.3047940
  77.8550260  67.0867130  49.4376370  77.7199800  65.7534540  50.1419540
  74.3987760  59.3384890  38.2065060  74.2785360  60.0646980  37.5946330
  74.0888650  58.5687800  37.7292970  72.0373130  62.5100030  44.0133700
  72.1153550  62.6448800  43.0689420  72.6514810  61.8015920  44.2061820
  73.2820760  64.2100220  40.4239880  72.8748840  64.3514810  39.5693480
  74.1733770  63.9260380  40.2211090  83.0999640  68.3592130  47.3306930
  83.6144310  68.2700140  48.1329360  82.2568720  68.7051830  47.6234840
  77.5542420  68.4246000  38.5362550  77.3784900  67.5081540  38.3230350
  76.6998160  68.7833290  38.7760350  84.3430100  67.7797740  39.3937420
  84.7987050  66.9987120  39.7076040  84.6822620  68.4904560  39.9378600
  72.0932650  63.5514200  46.5528160  72.2563690  63.0819560  45.7347530
  72.5585100  63.0437760  47.2177000  76.8651420  52.6819960  41.5888730
  76.4219570  53.4629500  41.2573250  77.4236410  53.0049850  42.2959670
  81.1521230  55.5488480  47.1924050  80.6900600  55.7571500  48.0043990
  80.7499340  54.7347830  46.8894720  83.2475450  58.2699180  50.4219500
  83.5728860  57.4362930  50.0821730  84.0355780  58.7927700  50.5697830
  79.9810240  52.3030660  36.4694560  79.3564420  52.2990530  37.1947870
  79.8940360  51.4361620  36.0730530  78.9027320  53.2267290  43.4478330
  79.1999650  54.1330120  43.3670350  79.4512880  52.7386070  42.8337900
  76.6565640  57.8053530  39.3169980  76.4306560  57.5890700  40.2216600
  75.8758170  58.2381990  38.9715950  83.8863400  57.8116900  37.9160630
  83.2872290  58.5352700  37.7324250  84.4343010  57.7493680  37.1337080
  79.0964850  58.7039110  49.9830250  79.0008450  57.7633840  49.8330650
  79.9396830  58.9254180  49.5878320  82.4928270  56.4480440  39.9463910
  82.8857840  56.7652640  39.1332600  82.8545120  55.5692320  40.0608430
  74.2275390  55.1152780  48.1364030  73.8338780  55.9627990  48.3436810
  73.5393790  54.4779150  48.3272670  80.8020440  55.1987750  51.2060770
  80.1118760  55.0059950  51.8406860  81.5452740  55.4822390  51.7385070
  71.5292440  53.0381240  42.1694110  71.2405490  53.6084100  42.8819090
  72.2738200  52.5585690  42.5325340  71.7162670  56.9801360  33.3796830
  71.6337340  57.9232120  33.5211820  71.3645730  56.8376270  32.5009180
  83.0783410  59.0386190  44.0414690  82.3464530  59.5473000  44.3904790
  82.6807750  58.2216170  43.7403470  79.5160800  55.7140390  42.4467180
  79.5196860  55.2730340  41.5971720  80.4111920  56.0357720  42.5539000
  75.3663180  55.5966880  41.4061390  75.0263230  56.0742110  42.1628440
  74.6040500  55.1432000  41.0462490  79.5780950  56.7152470  35.4373940
  79.6993770  56.6738950  36.3859760  79.1929460  57.5776620  35.2820670
  83.5409320  54.4919870  43.4537630  83.5582060  54.9428520  44.2979480
  83.2924900  53.5925510  43.6671070  78.5902450  59.0253610  34.8357240
  78.0219350  58.5771860  34.2093150  79.2991450  59.3846390  34.3022390
  73.6671630  62.9265630  48.7123970  73.2826420  62.2859300  49.3106930
  73.9783820  63.6301750  49.2818700  79.8168770  59.7742170  44.1932590
  80.1838900  59.3000740  44.9393930  79.6273830  60.6483740  44.5340930
  72.6809260  54.5185860  40.3226060  72.3956180  54.1541530  41.1604680
  72.6188120  53.7866320  39.7089200  77.6068140  58.8150810  46.5116800
  77.3025210  59.6942790  46.7367160  78.5614600  58.8750600  46.5474240
  76.1349930  63.0211800  37.1083650  75.3612190  62.4809420  36.9482370
  76.8644560  62.5018410  36.7701410  82.3547850  53.4115120  37.0439430
  81.5412460  52.9128290  36.9684740  82.1609800  54.2513370  36.6275780
  82.2756710  62.0886220  48.7879040  82.2094020  61.1681890  48.5336630
  81.6461850  62.1861660  49.5023680  76.1787330  62.6892180  40.7462460
  76.6966000  61.8860440  40.6919350  75.7271350  62.6271320  41.5879290
  81.0656830  63.9558460  36.0189760  81.4072530  64.7000690  35.5233080
  80.2369540  64.2689580  36.3814590  73.6631870  59.6553550  47.6588160
  73.3046810  60.3207400  48.2461500  73.3686430  58.8237100  48.0300780
  76.8644990  60.1137790  50.5427710  76.5645130  60.2594970  49.6455530
  77.6356230  59.5543080  50.4501100  82.2073440  64.9106790  48.5382840
  82.2217980  63.9787750  48.3201750  81.4998540  64.9966550  49.1772610
  83.9484240  63.2774300  41.3835270  84.3008060  62.6802430  40.7236640
  83.0646570  62.9518530  41.5543520  80.0347520  64.0371990  38.7905680
  80.7218650  64.5841200  39.1713270  79.2479940  64.5812720  38.8255290
  72.1739920  59.6544810  34.2822760  73.0434770  59.9369610  34.5658680
  71.6830240  60.4680680  34.1671570  79.3374730  61.0418020  38.4031040
  79.7937510  61.8523270  38.6291230  78.9862940  60.7241160  39.2349530
  81.6407340  66.5524360  45.6323340  82.2849560  66.7583740  46.3096760
  82.0036780  65.7912760  45.1794190  75.2386510  51.3855670  38.8753560
  75.1101140  51.3773570  39.8238480  74.4148530  51.7238760  38.5244570
  82.9139420  64.5556710  44.3500790  83.5561650  63.8549870  44.4632960
  83.4388770  65.3355150  44.1697680  72.5411170  68.8672190  34.8484390
  72.9008810  69.4661530  34.1941660  72.4003510  69.4132080  35.6219420
  72.2380440  53.1446790  48.3360260  71.5238960  53.3443710  48.9412870
  72.6575480  52.3686360  48.7075060  72.5253030  67.1327050  49.3226790
  72.6344150  66.1921790  49.1822180  71.8733590  67.3981800  48.6740520
  80.5165620  65.4042940  50.7224910  80.1962490  64.6852180  51.2670600
  79.8423980  66.0798010  50.7960970  78.5579790  66.2503390  35.6658060
  78.5489890  66.9833080  35.0502570  77.6378150  66.0034970  35.7585020
  74.1586430  61.4718280  36.4104820  73.5514380  62.2117180  36.4200120
  74.6335780  61.5617640  35.5843020  83.7319220  55.6369100  46.0861710
  84.1000040  54.8164310  46.4141280  82.8717420  55.6970990  46.5017360
  81.5439390  66.3131630  34.3283250  81.6451370  66.1095620  33.3985230
  80.6441130  66.0589910  34.5331030  79.0665280  56.8711990  38.3107150
  78.3581430  57.3398330  38.7520760  79.3509760  56.2134000  38.9452340
  80.6921210  58.2908690  46.3099680  81.1906460  58.7654510  46.9751530
  80.8344160  57.3672210  46.5169710  83.0980710  53.5962650  39.7502940
  82.9748490  53.6148780  38.8012450  84.0465270  53.6441590  39.8701340
  80.1857500  68.8317950  39.0230920  80.4399000  68.7939340  38.1010290
  79.2369980  68.7051280  39.0159170  77.2700300  55.1797070  35.6857860
  78.1190830  55.6167220  35.6198050  76.9031570  55.4917330  36.5129920
  76.1691720  61.4329430  34.1593390  76.9354990  61.3210790  34.7218820
  76.2466410  60.7367400  33.5070160  74.8638480  58.8654500  34.8426280
  74.9442070  57.9182010  34.9543680  75.7558230  59.1961380  34.9486940
  75.6653190  69.0149890  41.9460820  76.4015670  68.4665350  42.2169390
  76.0494110  69.8805900  41.8066810  72.5498670  65.0823460  37.8202330
  71.6238450  65.3244600  37.8107740  73.0155100  65.9097720  37.6987080
  74.6711470  68.1995960  51.1346400  75.4724200  68.5208010  51.5481800
  74.1563290  67.8391540  51.8566310  78.7755500  68.1880200  33.7686390
  79.5684110  68.4769030  33.3168180  78.2559850  67.7572370  33.0898870
  83.5076100  64.3075830  51.0821810  82.9014260  64.3307430  50.3417560
  83.2030210  63.5758870  51.6189060  72.3909280  60.6869420  50.0782450
  72.8948300  60.1076700  50.6498680  71.6516700  60.9709650  50.6158820
  79.2932900  63.4083610  33.6328740  79.1883540  62.7935960  34.3590120
  79.1257120  62.8849500  32.8491750  79.4447220  62.0940410  49.6117970
  78.6792890  62.6625410  49.5272640  79.6263180  61.8016620  48.7186200
  82.5335630  62.4703640  34.2370730  81.9845730  62.9172940  34.8813470
  83.1554890  61.9652890  34.7608400  74.4232360  58.8299010  50.9732520
  74.4637700  58.5312880  51.8817750  75.2777860  59.2306620  50.8140040
  78.2010750  61.4294560  36.1336030  78.6227170  61.2634430  36.9767420
  78.3261590  60.6194790  35.6391170  76.3638170  57.4091110  48.9407010
  75.8334630  56.9182060  48.3130350  77.0326240  57.8375310  48.4064940
  80.7138390  60.4532170  33.3813130  81.2344050  59.7381190  33.0154280
  81.3606790  61.0918040  33.6813640  76.8510470  54.3753480  49.0204300
  76.7567340  53.7574230  48.2955170  76.2707860  55.1019770  48.7934210
  79.6171910  52.9326720  46.0531690  79.1689210  52.9550980  45.2077240
  78.9837110  52.5345740  46.6501990  80.0231460  61.8281050  46.6744130
  80.4419570  62.6713780  46.5020370  79.1040090  61.9653090  46.4450910
  82.3595360  59.5597230  48.0581970  82.4791570  58.9638370  48.7976810
  83.2189360  59.5966920  47.6383270  77.0969650  57.5027790  33.0794190
  76.8958710  56.6395150  33.4407530  76.9261700  57.4161150  32.1415790
  77.8738880  68.1334060  47.7901860  77.3359970  68.8580120  47.4710560
  78.1272840  67.6564400  46.9999200  79.1264130  56.1018580  49.3157790
  79.7163820  55.7934430  50.0035610  78.3084370  55.6298330  49.4717690
  83.9457560  55.7184390  49.5490810  83.2573080  55.0565930  49.4840800
  84.6663580  55.2722660  49.9939270  75.8952450  54.6028410  33.0672070
  76.1978350  54.6095840  32.1591220  76.6347040  54.2526270  33.5639730
  80.7301090  69.3685270  48.0488510  80.6559790  70.2720410  48.3560880
  79.8279930  69.0497170  48.0210580  79.1137380  53.5463030  34.0528270
  78.7659380  52.8687020  33.4730720  79.3150150  53.0852540  34.8671660
  81.2786420  68.5343780  35.6714870  82.1737210  68.8728750  35.6933630
  81.3104050  67.8123190  35.0439150  74.9182580  63.9070830  33.9001870
  75.3557450  64.4500500  34.5559450  75.4030310  63.0817780  33.9098210
  72.1328380  66.6959860  41.3522130  72.4631390  65.8280920  41.1200770
  72.5619380  66.9018380  42.1827090  76.7290300  65.0268870  39.0124100
  76.4285840  64.9033840  39.9128010  76.6227790  64.1677460  38.6039830
  72.6218590  67.5630450  44.0903760  72.1849580  67.7431250  44.9227910
  73.1896270  68.3205070  43.9485480  72.4543020  60.0750680  40.4492640
  71.7991860  59.8062320  39.8052340  73.2920970  59.9655160  39.9994620
  73.4918950  60.4603250  44.9895980  73.8591990  60.3730650  45.8692000
  72.9229770  59.6969800  44.8902840  73.0434950  57.3712340  48.8954400
  72.1491000  57.3379100  49.2348110  73.5832500  57.5699130  49.6605650
  71.6681100  57.2849610  36.3917970  70.7645180  57.5479810  36.2169630
  72.1521720  57.5560780  35.6117930  74.2108310  56.3415150  34.3012350
  74.9200010  55.9198370  33.8159630  73.4948250  56.4090380  33.6695700
  73.8582470  52.3954480  33.3415000  74.5810600  52.9363420  33.6596220
  74.1306990  52.1217900  32.4656540  73.5474660  51.6460670  43.2437620
  74.1950850  51.0958050  42.8032780  73.9676500  51.9003820  44.0653430
  73.3006660  51.8016340  45.9862940  72.9521480  52.2580160  46.7521120
  72.9694360  50.9073470  46.0685370  74.9071030  64.9735940  50.1516130
  74.8640660  64.6028850  51.0330590  75.0382040  65.9113510  50.2917950
  78.6077060  66.5295530  45.7525850  78.3668420  66.7970090  44.8656370
  79.5479700  66.7001260  45.8076710  80.8131480  52.9928220  49.5082360
  80.7520370  53.5850050  50.2577770  81.7531860  52.8854180  49.3632620
  83.4506040  52.6498280  49.1474650  84.0646450  52.9677570  48.4855730
  83.9955600  52.1646870  49.7670510  73.9727300  51.3292540  49.2613710
  74.5210290  51.1480590  48.4979820  74.0382610  50.5386650  49.7970020
  74.7459060  67.9198190  47.2713910  74.1519380  67.7882890  48.0103950
  74.7382900  67.0836330  46.8056010  84.1914080  51.2130420  45.4743940
  83.3173920  51.5465530  45.2716870  84.0824830  50.7403600  46.2995810
  74.3771290  65.2856570  46.2221950  73.6505350  64.6661860  46.1547900
  74.4380440  65.6797180  45.3520030  77.9816390  67.5001570  43.0071360
  78.4981410  66.8888930  42.4819620  78.6313770  68.0030350  43.4982370
  80.7211890  68.3910060  43.8340340  81.0089700  68.1364360  42.9573350
  81.2335110  67.8387420  44.4245910  81.9388900  52.1300260  44.4136850
  81.1560690  52.6045760  44.6933610  81.6451830  51.2255090  44.3050030
  72.6601290  68.6030960  39.4318710  72.4923330  67.9701640  40.1300600
  71.7935800  68.8090360  39.0812900  73.2829310  52.4347740  36.9350570
  74.0408670  52.5476620  36.3614600  72.8206480  53.2716940  36.8894000
  79.8243120  54.5487010  39.9252880  79.0117630  54.1743900  39.5848760
  80.3284760  53.7932090  40.2274070  74.2663990  67.2964190  36.8768850
  73.7411610  67.6772220  36.1730810  74.1908570  67.9214960  37.5978560
  75.6554460  52.9611790  35.4752540  76.1847220  52.1741590  35.3460490
  76.2882780  53.6402980  35.7088070  77.8492300  52.6986930  38.5297930
  77.2195040  51.9974240  38.6968060  77.3097440  53.4591060  38.3131090
  80.7884250  69.3126160  51.2008540  81.7151560  69.0770430  51.2444500
  80.7734680  70.1398160  50.7194570  77.9747860  51.9770910  50.9650420
  77.6932130  52.4804510  50.2011240  78.3567560  51.1792660  50.5992550
  76.8656960  69.2446570  35.7518100  77.5975780  68.9605850  35.2041990
  77.1250630  69.0059850  36.6417480  76.0271750  65.3611300  35.7564430
  75.3980630  65.8296400  36.3050260  76.1419580  64.5160520  36.1910620
  83.4821470  59.4116960  21.9065630  83.4015520  58.4971570  21.6357340
  83.0685890  59.9084030  21.2005340  81.6139510  61.1895980  23.7874900
  80.8381610  60.7096420  24.0773470  82.2652440  60.5101630  23.6131060
  75.6305340  61.5015790  24.6650660  74.7990220  61.2464500  25.0647170
  76.2386320  61.5726560  25.4008580  75.6106600  65.5355880  24.8608680
  75.9134640  64.6453620  24.6818900  76.3550190  66.0926100  24.6330930
  74.0397290  56.4617680  18.4493050  73.1513990  56.8033650  18.3472930
  74.3238480  56.2618000  17.5573880  72.0030300  59.0623330  24.3332750
  72.5746410  58.2945530  24.3336390  72.0031840  59.3612090  23.4239360
  81.8610250  67.8814180  22.1878020  81.2421690  68.3371680  21.6172460
  82.7162030  68.0365640  21.7867720  81.0548500  63.8653170  23.7945060
  80.9856780  62.9243110  23.6334190  81.8168360  63.9554580  24.3667630
  73.2455170  54.4707690  26.1201680  73.0658010  53.5733440  26.4004440
  72.8435250  55.0179560  26.7948630  82.0853670  56.6723550  24.0213990
  82.4618490  55.7995430  23.9087660  81.9873180  57.0082250  23.1304430
  76.2158680  55.0449180  19.4831430  76.3225430  55.9452910  19.7900190
  75.3051040  54.9967150  19.1926080  73.8641840  56.9668190  24.7284020
  74.5451950  57.2306560  25.3471420  73.5489890  56.1269060  25.0622030
  78.0566410  58.0135550  23.8156610  78.5644630  58.5116520  24.4561630
  78.5879650  57.2370750  23.6395970  76.3402510  52.6534110  28.0820030
  76.3420950  53.1706500  27.2765930  75.5106820  52.1764290  28.0589960
  82.7273600  62.7653420  19.5809930  82.1090870  63.2302870  19.0172650
  83.2396850  63.4580900  19.9979440  77.5905360  62.2929290  26.2593530
  77.2574740  62.9198210  26.9014600  77.7672040  62.8191170  25.4795200
  76.0217840  54.3644070  26.0890480  76.3634650  55.2086120  25.7944350
  75.0833650  54.5127810  26.2055820  76.8024460  64.2610090  28.0742710
  77.4198460  64.9361170  27.7927160  75.9417580  64.6698070  27.9830210
  72.0956800  63.4509950  16.9549560  71.7184780  63.9397050  16.2234460
  72.3529870  64.1235230  17.5856090  79.7045730  51.8526340  22.4135070
  80.0120710  51.2973230  21.6970570  78.7746430  51.9870800  22.2308060
  82.0926490  59.9175170  19.1495190  81.1655770  59.8512550  19.3783660
  82.2451310  60.8555300  19.0350430  82.0795570  56.1892170  16.1462350
  81.1399240  56.3506130  16.2314810  82.3978830  56.9077850  15.5998340
  77.6983130  60.4439910  21.9314920  77.2940130  59.7317160  21.4360820
  77.7846250  60.0993150  22.8202960  78.1664830  64.1307470  24.0954130
  77.8693120  63.5252940  23.4161910  79.1164650  64.1684780  23.9843490
  76.4111750  57.2183120  25.7113960  76.9626340  57.3278460  24.9367210
  76.9255260  57.5920720  26.4269190  77.2583260  63.8689160  30.7461930
  76.3611790  64.0929130  30.9935330  77.2836130  63.9924100  29.7973330
  76.0854480  60.7402480  29.3219300  75.9462250  61.6125280  29.6906700
  75.2035840  60.3975290  29.1767240  82.4083860  65.6578350  20.6284430
  82.8479770  66.4002680  20.2139820  82.3470750  65.9004920  21.5523390
  77.8834830  66.6824180  31.5304450  77.8550260  67.0867130  30.6632880
  77.7199800  65.7534540  31.3676050  74.3987760  59.3384890  19.4321570
  74.2785360  60.0646980  18.8202840  74.0888650  58.5687800  18.9549480
  72.0373130  62.5100030  25.2390210  72.1153550  62.6448800  24.2945930
  72.6514810  61.8015920  25.4318330  73.2820760  64.2100220  21.6496390
  72.8748840  64.3514810  20.7949990  74.1733770  63.9260380  21.4467600
  83.0999640  68.3592130  28.5563440  83.6144310  68.2700140  29.3585870
  82.2568720  68.7051830  28.8491350  77.5542420  68.4246000  19.7619060
  77.3784900  67.5081540  19.5486860  76.6998160  68.7833290  20.0016860
  84.3430100  67.7797740  20.6193930  84.7987050  66.9987120  20.9332550
  84.6822620  68.4904560  21.1635110  72.0932650  63.5514200  27.7784670
  72.2563690  63.0819560  26.9604040  72.5585100  63.0437760  28.4433510
  76.8651420  52.6819960  22.8145240  76.4219570  53.4629500  22.4829760
  77.4236410  53.0049850  23.5216180  81.1521230  55.5488480  28.4180560
  80.6900600  55.7571500  29.2300500  80.7499340  54.7347830  28.1151230
  83.2475450  58.2699180  31.6476010  83.5728860  57.4362930  31.3078240
  84.0355780  58.7927700  31.7954340  79.9810240  52.3030660  17.6951070
  79.3564420  52.2990530  18.4204380  79.8940360  51.4361620  17.2987040
  78.9027320  53.2267290  24.6734840  79.1999650  54.1330120  24.5926860
  79.4512880  52.7386070  24.0594410  76.6565640  57.8053530  20.5426490
  76.4306560  57.5890700  21.4473110  75.8758170  58.2381990  20.1972460
  83.8863400  57.8116900  19.1417140  83.2872290  58.5352700  18.9580760
  84.4343010  57.7493680  18.3593590  79.0964850  58.7039110  31.2086760
  79.0008450  57.7633840  31.0587160  79.9396830  58.9254180  30.8134830
  82.4928270  56.4480440  21.1720420  82.8857840  56.7652640  20.3589110
  82.8545120  55.5692320  21.2864940  74.2275390  55.1152780  29.3620540
  73.8338780  55.9627990  29.5693320  73.5393790  54.4779150  29.5529180
  80.8020440  55.1987750  32.4317280  80.1118760  55.0059950  33.0663370
  81.5452740  55.4822390  32.9641580  71.5292440  53.0381240  23.3950620
  71.2405490  53.6084100  24.1075600  72.2738200  52.5585690  23.7581850
  71.7162670  56.9801360  14.6053340  71.6337340  57.9232120  14.7468330
  71.3645730  56.8376270  13.7265690  83.0783410  59.0386190  25.2671200
  82.3464530  59.5473000  25.6161300  82.6807750  58.2216170  24.9659980
  79.5160800  55.7140390  23.6723690  79.5196860  55.2730340  22.8228230
  80.4111920  56.0357720  23.7795510  75.3663180  55.5966880  22.6317900
  75.0263230  56.0742110  23.3884950  74.6040500  55.1432000  22.2719000
  79.5780950  56.7152470  16.6630450  79.6993770  56.6738950  17.6116270
  79.1929460  57.5776620  16.5077180  83.5409320  54.4919870  24.6794140
  83.5582060  54.9428520  25.5235990  83.2924900  53.5925510  24.8927580
  78.5902450  59.0253610  16.0613750  78.0219350  58.5771860  15.4349660
  79.2991450  59.3846390  15.5278900  73.6671630  62.9265630  29.9380480
  73.2826420  62.2859300  30.5363440  73.9783820  63.6301750  30.5075210
  79.8168770  59.7742170  25.4189100  80.1838900  59.3000740  26.1650440
  79.6273830  60.6483740  25.7597440  72.6809260  54.5185860  21.5482570
  72.3956180  54.1541530  22.3861190  72.6188120  53.7866320  20.9345710
  77.6068140  58.8150810  27.7373310  77.3025210  59.6942790  27.9623670
  78.5614600  58.8750600  27.7730750  76.1349930  63.0211800  18.3340160
  75.3612190  62.4809420  18.1738880  76.8644560  62.5018410  17.9957920
  82.3547850  53.4115120  18.2695940  81.5412460  52.9128290  18.1941250
  82.1609800  54.2513370  17.8532290  82.2756710  62.0886220  30.0135550
  82.2094020  61.1681890  29.7593140  81.6461850  62.1861660  30.7280190
  76.1787330  62.6892180  21.9718970  76.6966000  61.8860440  21.9175860
  75.7271350  62.6271320  22.8135800  81.0656830  63.9558460  17.2446270
  81.4072530  64.7000690  16.7489590  80.2369540  64.2689580  17.6071100
  73.6631870  59.6553550  28.8844670  73.3046810  60.3207400  29.4718010
  73.3686430  58.8237100  29.2557290  76.8644990  60.1137790  31.7684220
  76.5645130  60.2594970  30.8712040  77.6356230  59.5543080  31.6757610
  82.2073440  64.9106790  29.7639350  82.2217980  63.9787750  29.5458260
  81.4998540  64.9966550  30.4029120  83.9484240  63.2774300  22.6091780
  84.3008060  62.6802430  21.9493150  83.0646570  62.9518530  22.7800030
  80.0347520  64.0371990  20.0162190  80.7218650  64.5841200  20.3969780
  79.2479940  64.5812720  20.0511800  72.1739920  59.6544810  15.5079270
  73.0434770  59.9369610  15.7915190  71.6830240  60.4680680  15.3928080
  79.3374730  61.0418020  19.6287550  79.7937510  61.8523270  19.8547740
  78.9862940  60.7241160  20.4606040  81.6407340  66.5524360  26.8579850
  82.2849560  66.7583740  27.5353270  82.0036780  65.7912760  26.4050700
  75.2386510  51.3855670  20.1010070  75.1101140  51.3773570  21.0494990
  74.4148530  51.7238760  19.7501080  82.9139420  64.5556710  25.5757300
  83.5561650  63.8549870  25.6889470  83.4388770  65.3355150  25.3954190
  72.5411170  68.8672190  16.0740900  72.9008810  69.4661530  15.4198170
  72.4003510  69.4132080  16.8475930  72.2380440  53.1446790  29.5616770
  71.5238960  53.3443710  30.1669380  72.6575480  52.3686360  29.9331570
  72.5253030  67.1327050  30.5483300  72.6344150  66.1921790  30.4078690
  71.8733590  67.3981800  29.8997030  80.5165620  65.4042940  31.9481420
  80.1962490  64.6852180  32.4927110  79.8423980  66.0798010  32.0217480
  78.5579790  66.2503390  16.8914570  78.5489890  66.9833080  16.2759080
  77.6378150  66.0034970  16.9841530  74.1586430  61.4718280  17.6361330
  73.5514380  62.2117180  17.6456630  74.6335780  61.5617640  16.8099530
  83.7319220  55.6369100  27.3118220  84.1000040  54.8164310  27.6397790
  82.8717420  55.6970990  27.7273870  81.5439390  66.3131630  15.5539760
  81.6451370  66.1095620  14.6241740  80.6441130  66.0589910  15.7587540
  79.0665280  56.8711990  19.5363660  78.3581430  57.3398330  19.9777270
  79.3509760  56.2134000  20.1708850  80.6921210  58.2908690  27.5356190
  81.1906460  58.7654510  28.2008040  80.8344160  57.3672210  27.7426220
  83.0980710  53.5962650  20.9759450  82.9748490  53.6148780  20.0268960
  84.0465270  53.6441590  21.0957850  80.1857500  68.8317950  20.2487430
  80.4399000  68.7939340  19.3266800  79.2369980  68.7051280  20.2415680
  77.2700300  55.1797070  16.9114370  78.1190830  55.6167220  16.8454560
  76.9031570  55.4917330  17.7386430  76.1691720  61.4329430  15.3849900
  76.9354990  61.3210790  15.9475330  76.2466410  60.7367400  14.7326670
  74.8638480  58.8654500  16.0682790  74.9442070  57.9182010  16.1800190
  75.7558230  59.1961380  16.1743450  75.6653190  69.0149890  23.1717330
  76.4015670  68.4665350  23.4425900  76.0494110  69.8805900  23.0323320
  72.5498670  65.0823460  19.0458840  71.6238450  65.3244600  19.0364250
  73.0155100  65.9097720  18.9243590  74.6711470  68.1995960  32.3602910
  75.4724200  68.5208010  32.7738310  74.1563290  67.8391540  33.0822820
  78.7755500  68.1880200  14.9942900  79.5684110  68.4769030  14.5424690
  78.2559850  67.7572370  14.3155380  83.5076100  64.3075830  32.3078320
  82.9014260  64.3307430  31.5674070  83.2030210  63.5758870  32.8445570
  72.3909280  60.6869420  31.3038960  72.8948300  60.1076700  31.8755190
  71.6516700  60.9709650  31.8415330  79.2932900  63.4083610  14.8585250
  79.1883540  62.7935960  15.5846630  79.1257120  62.8849500  14.0748260
  79.4447220  62.0940410  30.8374480  78.6792890  62.6625410  30.7529150
  79.6263180  61.8016620  29.9442710  82.5335630  62.4703640  15.4627240
  81.9845730  62.9172940  16.1069980  83.1554890  61.9652890  15.9864910
  74.4232360  58.8299010  32.1989030  74.4637700  58.5312880  33.1074260
  75.2777860  59.2306620  32.0396550  78.2010750  61.4294560  17.3592540
  78.6227170  61.2634430  18.2023930  78.3261590  60.6194790  16.8647680
  76.3638170  57.4091110  30.1663520  75.8334630  56.9182060  29.5386860
  77.0326240  57.8375310  29.6321450  80.7138390  60.4532170  14.6069640
  81.2344050  59.7381190  14.2410790  81.3606790  61.0918040  14.9070150
  76.8510470  54.3753480  30.2460810  76.7567340  53.7574230  29.5211680
  76.2707860  55.1019770  30.0190720  79.6171910  52.9326720  27.2788200
  79.1689210  52.9550980  26.4333750  78.9837110  52.5345740  27.8758500
  80.0231460  61.8281050  27.9000640  80.4419570  62.6713780  27.7276880
  79.1040090  61.9653090  27.6707420  82.3595360  59.5597230  29.2838480
  82.4791570  58.9638370  30.0233320  83.2189360  59.5966920  28.8639780
  77.0969650  57.5027790  14.3050700  76.8958710  56.6395150  14.6664040
  76.9261700  57.4161150  13.3672300  77.8738880  68.1334060  29.0158370
  77.3359970  68.8580120  28.6967070  78.1272840  67.6564400  28.2255710
  79.1264130  56.1018580  30.5414300  79.7163820  55.7934430  31.2292120
  78.3084370  55.6298330  30.6974200  83.9457560  55.7184390  30.7747320
  83.2573080  55.0565930  30.7097310  84.6663580  55.2722660  31.2195780
  75.8952450  54.6028410  14.2928580  76.1978350  54.6095840  13.3847730
  76.6347040  54.2526270  14.7896240  80.7301090  69.3685270  29.2745020
  80.6559790  70.2720410  29.5817390  79.8279930  69.0497170  29.2467090
  79.1137380  53.5463030  15.2784780  78.7659380  52.8687020  14.6987230
  79.3150150  53.0852540  16.0928170  81.2786420  68.5343780  16.8971380
  82.1737210  68.8728750  16.9190140  81.3104050  67.8123190  16.2695660
  74.9182580  63.9070830  15.1258380  75.3557450  64.4500500  15.7815960
  75.4030310  63.0817780  15.1354720  72.1328380  66.6959860  22.5778640
  72.4631390  65.8280920  22.3457280  72.5619380  66.9018380  23.4083600
  76.7290300  65.0268870  20.2380610  76.4285840  64.9033840  21.1384520
  76.6227790  64.1677460  19.8296340  72.6218590  67.5630450  25.3160270
  72.1849580  67.7431250  26.1484420  73.1896270  68.3205070  25.1741990
  72.4543020  60.0750680  21.6749150  71.7991860  59.8062320  21.0308850
  73.2920970  59.9655160  21.2251130  73.4918950  60.4603250  26.2152490
  73.8591990  60.3730650  27.0948510  72.9229770  59.6969800  26.1159350
  73.0434950  57.3712340  30.1210910  72.1491000  57.3379100  30.4604620
  73.5832500  57.5699130  30.8862160  71.6681100  57.2849610  17.6174480
  70.7645180  57.5479810  17.4426140  72.1521720  57.5560780  16.8374440
  74.2108310  56.3415150  15.5268860  74.9200010  55.9198370  15.0416140
  73.4948250  56.4090380  14.8952210  73.8582470  52.3954480  14.5671510
  74.5810600  52.9363420  14.8852730  74.1306990  52.1217900  13.6913050
  73.5474660  51.6460670  24.4694130  74.1950850  51.0958050  24.0289290
  73.9676500  51.9003820  25.2909940  73.3006660  51.8016340  27.2119450
  72.9521480  52.2580160  27.9777630  72.9694360  50.9073470  27.2941880
  74.9071030  64.9735940  31.3772640  74.8640660  64.6028850  32.2587100
  75.0382040  65.9113510  31.5174460  78.6077060  66.5295530  26.9782360
  78.3668420  66.7970090  26.0912880  79.5479700  66.7001260  27.0333220
  80.8131480  52.9928220  30.7338870  80.7520370  53.5850050  31.4834280
  81.7531860  52.8854180  30.5889130  83.4506040  52.6498280  30.3731160
  84.0646450  52.9677570  29.7112240  83.9955600  52.1646870  30.9927020
  73.9727300  51.3292540  30.4870220  74.5210290  51.1480590  29.7236330
  74.0382610  50.5386650  31.0226530  74.7459060  67.9198190  28.4970420
  74.1519380  67.7882890  29.2360460  74.7382900  67.0836330  28.0312520
  84.1914080  51.2130420  26.7000450  83.3173920  51.5465530  26.4973380
  84.0824830  50.7403600  27.5252320  74.3771290  65.2856570  27.4478460
  73.6505350  64.6661860  27.3804410  74.4380440  65.6797180  26.5776540
  77.9816390  67.5001570  24.2327870  78.4981410  66.8888930  23.7076130
  78.6313770  68.0030350  24.7238880  80.7211890  68.3910060  25.0596850
  81.0089700  68.1364360  24.1829860  81.2335110  67.8387420  25.6502420
  81.9388900  52.1300260  25.6393360  81.1560690  52.6045760  25.9190120
  81.6451830  51.2255090  25.5306540  72.6601290  68.6030960  20.6575220
  72.4923330  67.9701640  21.3557110  71.7935800  68.8090360  20.3069410
  73.2829310  52.4347740  18.1607080  74.0408670  52.5476620  17.5871110
  72.8206480  53.2716940  18.1150510  79.8243120  54.5487010  21.1509390
  79.0117630  54.1743900  20.8105270  80.3284760  53.7932090  21.4530580
  74.2663990  67.2964190  18.1025360  73.7411610  67.6772220  17.3987320
  74.1908570  67.9214960  18.8235070  75.6554460  52.9611790  16.7009050
  76.1847220  52.1741590  16.5717000  76.2882780  53.6402980  16.9344580
  77.8492300  52.6986930  19.7554440  77.2195040  51.9974240  19.9224570
  77.3097440  53.4591060  19.5387600  80.7884250  69.3126160  32.4265050
  81.7151560  69.0770430  32.4701010  80.7734680  70.1398160  31.9451080
  77.9747860  51.9770910  32.1906930  77.6932130  52.4804510  31.4267750
  78.3567560  51.1792660  31.8249060  76.8656960  69.2446570  16.9774610
  77.5975780  68.9605850  16.4298500  77.1250630  69.0059850  17.8673990
  76.0271750  65.3611300  16.9820940  75.3980630  65.8296400  17.5306770
  76.1419580  64.5160520  17.4167130  83.4821470  59.4116960   3.1322140
  83.4015520  58.4971570   2.8613850  83.0685890  59.9084030   2.4261850
  81.6139510  61.1895980   5.0131410  80.8381610  60.7096420   5.3029980
  82.2652440  60.5101630   4.8387570  75.6305340  61.5015790   5.8907170
  74.7990220  61.2464500   6.2903680  76.2386320  61.5726560   6.6265090
  75.6106600  65.5355880   6.0865190  75.9134640  64.6453620   5.9075410
  76.3550190  66.0926100   5.8587440  72.0030300  59.0623330   5.5589260
  72.5746410  58.2945530   5.5592900  72.0031840  59.3612090   4.6495870
  81.8610250  67.8814180   3.4134530  81.2421690  68.3371680   2.8428970
  82.7162030  68.0365640   3.0124230  81.0548500  63.8653170   5.0201570
  80.9856780  62.9243110   4.8590700  81.8168360  63.9554580   5.5924140
  73.2455170  54.4707690   7.3458190  73.0658010  53.5733440   7.6260950
  72.8435250  55.0179560   8.0205140  82.0853670  56.6723550   5.2470500
  82.4618490  55.7995430   5.1344170  81.9873180  57.0082250   4.3560940
  73.8641840  56.9668190   5.9540530  74.5451950  57.2306560   6.5727930
  73.5489890  56.1269060   6.2878540  78.0566410  58.0135550   5.0413120
  78.5644630  58.5116520   5.6818140  78.5879650  57.2370750   4.8652480
  76.3402510  52.6534110   9.3076540  76.3420950  53.1706500   8.5022440
  75.5106820  52.1764290   9.2846470  77.5905360  62.2929290   7.4850040
  77.2574740  62.9198210   8.1271110  77.7672040  62.8191170   6.7051710
  76.0217840  54.3644070   7.3146990  76.3634650  55.2086120   7.0200860
  75.0833650  54.5127810   7.4312330  76.8024460  64.2610090   9.2999220
  77.4198460  64.9361170   9.0183670  75.9417580  64.6698070   9.2086720
  79.7045730  51.8526340   3.6391580  80.0120710  51.2973230   2.9227080
  78.7746430  51.9870800   3.4564570  77.6983130  60.4439910   3.1571430
  77.2940130  59.7317160   2.6617330  77.7846250  60.0993150   4.0459470
  78.1664830  64.1307470   5.3210640  77.8693120  63.5252940   4.6418420
  79.1164650  64.1684780   5.2100000  76.4111750  57.2183120   6.9370470
  76.9626340  57.3278460   6.1623720  76.9255260  57.5920720   7.6525700
  77.2583260  63.8689160  11.9718440  76.3611790  64.0929130  12.2191840
  77.2836130  63.9924100  11.0229840  76.0854480  60.7402480  10.5475810
  75.9462250  61.6125280  10.9163210  75.2035840  60.3975290  10.4023750
  82.4083860  65.6578350   1.8540940  82.8479770  66.4002680   1.4396330
  82.3470750  65.9004920   2.7779900  77.8834830  66.6824180  12.7560960
  77.8550260  67.0867130  11.8889390  77.7199800  65.7534540  12.5932560
  72.0373130  62.5100030   6.4646720  72.1153550  62.6448800   5.5202440
  72.6514810  61.8015920   6.6574840  73.2820760  64.2100220   2.8752900
  72.8748840  64.3514810   2.0206500  74.1733770  63.9260380   2.6724110
  83.0999640  68.3592130   9.7819950  83.6144310  68.2700140  10.5842380
  82.2568720  68.7051830  10.0747860  84.3430100  67.7797740   1.8450440
  84.7987050  66.9987120   2.1589060  84.6822620  68.4904560   2.3891620
  72.0932650  63.5514200   9.0041180  72.2563690  63.0819560   8.1860550
  72.5585100  63.0437760   9.6690020  76.8651420  52.6819960   4.0401750
  76.4219570  53.4629500   3.7086270  77.4236410  53.0049850   4.7472690
  81.1521230  55.5488480   9.6437070  80.6900600  55.7571500  10.4557010
  80.7499340  54.7347830   9.3407740  83.2475450  58.2699180  12.8732520
  83.5728860  57.4362930  12.5334750  84.0355780  58.7927700  13.0210850
  78.9027320  53.2267290   5.8991350  79.1999650  54.1330120   5.8183370
  79.4512880  52.7386070   5.2850920  76.6565640  57.8053530   1.7683000
  76.4306560  57.5890700   2.6729620  75.8758170  58.2381990   1.4228970
  79.0964850  58.7039110  12.4343270  79.0008450  57.7633840  12.2843670
  79.9396830  58.9254180  12.0391340  82.4928270  56.4480440   2.3976930
  82.8857840  56.7652640   1.5845620  82.8545120  55.5692320   2.5121450
  74.2275390  55.1152780  10.5877050  73.8338780  55.9627990  10.7949830
  73.5393790  54.4779150  10.7785690  80.8020440  55.1987750  13.6573790
  80.1118760  55.0059950  14.2919880  81.5452740  55.4822390  14.1898090
  71.5292440  53.0381240   4.6207130  71.2405490  53.6084100   5.3332110
  72.2738200  52.5585690   4.9838360  83.0783410  59.0386190   6.4927710
  82.3464530  59.5473000   6.8417810  82.6807750  58.2216170   6.1916490
  79.5160800  55.7140390   4.8980200  79.5196860  55.2730340   4.0484740
  80.4111920  56.0357720   5.0052020  75.3663180  55.5966880   3.8574410
  75.0263230  56.0742110   4.6141460  74.6040500  55.1432000   3.4975510
  83.5409320  54.4919870   5.9050650  83.5582060  54.9428520   6.7492500
  83.2924900  53.5925510   6.1184090  73.6671630  62.9265630  11.1636990
  73.2826420  62.2859300  11.7619950  73.9783820  63.6301750  11.7331720
  79.8168770  59.7742170   6.6445610  80.1838900  59.3000740   7.3906950
  79.6273830  60.6483740   6.9853950  72.6809260  54.5185860   2.7739080
  72.3956180  54.1541530   3.6117700  72.6188120  53.7866320   2.1602220
  77.6068140  58.8150810   8.9629820  77.3025210  59.6942790   9.1880180
  78.5614600  58.8750600   8.9987260  82.2756710  62.0886220  11.2392060
  82.2094020  61.1681890  10.9849650  81.6461850  62.1861660  11.9536700
  76.1787330  62.6892180   3.1975480  76.6966000  61.8860440   3.1432370
  75.7271350  62.6271320   4.0392310  73.6631870  59.6553550  10.1101180
  73.3046810  60.3207400  10.6974520  73.3686430  58.8237100  10.4813800
  76.8644990  60.1137790  12.9940730  76.5645130  60.2594970  12.0968550
  77.6356230  59.5543080  12.9014120  82.2073440  64.9106790  10.9895860
  82.2217980  63.9787750  10.7714770  81.4998540  64.9966550  11.6285630
  83.9484240  63.2774300   3.8348290  84.3008060  62.6802430   3.1749660
  83.0646570  62.9518530   4.0056540  81.6407340  66.5524360   8.0836360
  82.2849560  66.7583740   8.7609780  82.0036780  65.7912760   7.6307210
  82.9139420  64.5556710   6.8013810  83.5561650  63.8549870   6.9145980
  83.4388770  65.3355150   6.6210700  72.2380440  53.1446790  10.7873280
  71.5238960  53.3443710  11.3925890  72.6575480  52.3686360  11.1588080
  72.5253030  67.1327050  11.7739810  72.6344150  66.1921790  11.6335200
  71.8733590  67.3981800  11.1253540  80.5165620  65.4042940  13.1737930
  80.1962490  64.6852180  13.7183620  79.8423980  66.0798010  13.2473990
  83.7319220  55.6369100   8.5374730  84.1000040  54.8164310   8.8654300
  82.8717420  55.6970990   8.9530380  80.6921210  58.2908690   8.7612700
  81.1906460  58.7654510   9.4264550  80.8344160  57.3672210   8.9682730
  75.6653190  69.0149890   4.3973840  76.4015670  68.4665350   4.6682410
  76.0494110  69.8805900   4.2579830  74.6711470  68.1995960  13.5859420
  75.4724200  68.5208010  13.9994820  74.1563290  67.8391540  14.3079330
  83.5076100  64.3075830  13.5334830  82.9014260  64.3307430  12.7930580
  83.2030210  63.5758870  14.0702080  72.3909280  60.6869420  12.5295470
  72.8948300  60.1076700  13.1011700  71.6516700  60.9709650  13.0671840
  79.4447220  62.0940410  12.0630990  78.6792890  62.6625410  11.9785660
  79.6263180  61.8016620  11.1699220  74.4232360  58.8299010  13.4245540
  74.4637700  58.5312880  14.3330770  75.2777860  59.2306620  13.2653060
  76.3638170  57.4091110  11.3920030  75.8334630  56.9182060  10.7643370
  77.0326240  57.8375310  10.8577960  76.8510470  54.3753480  11.4717320
  76.7567340  53.7574230  10.7468190  76.2707860  55.1019770  11.2447230
  79.6171910  52.9326720   8.5044710  79.1689210  52.9550980   7.6590260
  78.9837110  52.5345740   9.1015010  80.0231460  61.8281050   9.1257150
  80.4419570  62.6713780   8.9533390  79.1040090  61.9653090   8.8963930
  82.3595360  59.5597230  10.5094990  82.4791570  58.9638370  11.2489830
  83.2189360  59.5966920  10.0896290  77.8738880  68.1334060  10.2414880
  77.3359970  68.8580120   9.9223580  78.1272840  67.6564400   9.4512220
  79.1264130  56.1018580  11.7670810  79.7163820  55.7934430  12.4548630
  78.3084370  55.6298330  11.9230710  83.9457560  55.7184390  12.0003830
  83.2573080  55.0565930  11.9353820  84.6663580  55.2722660  12.4452290
  80.7301090  69.3685270  10.5001530  80.6559790  70.2720410  10.8073900
  79.8279930  69.0497170  10.4723600  72.1328380  66.6959860   3.8035150
  72.4631390  65.8280920   3.5713790  72.5619380  66.9018380   4.6340110
  72.6218590  67.5630450   6.5416780  72.1849580  67.7431250   7.3740930
  73.1896270  68.3205070   6.3998500  72.4543020  60.0750680   2.9005660
  71.7991860  59.8062320   2.2565360  73.2920970  59.9655160   2.4507640
  73.4918950  60.4603250   7.4409000  73.8591990  60.3730650   8.3205020
  72.9229770  59.6969800   7.3415860  73.0434950  57.3712340  11.3467420
  72.1491000  57.3379100  11.6861130  73.5832500  57.5699130  12.1118670
  73.5474660  51.6460670   5.6950640  74.1950850  51.0958050   5.2545800
  73.9676500  51.9003820   6.5166450  73.3006660  51.8016340   8.4375960
  72.9521480  52.2580160   9.2034140  72.9694360  50.9073470   8.5198390
  74.9071030  64.9735940  12.6029150  74.8640660  64.6028850  13.4843610
  75.0382040  65.9113510  12.7430970  78.6077060  66.5295530   8.2038870
  78.3668420  66.7970090   7.3169390  79.5479700  66.7001260   8.2589730
  80.8131480  52.9928220  11.9595380  80.7520370  53.5850050  12.7090790
  81.7531860  52.8854180  11.8145640  83.4506040  52.6498280  11.5987670
  84.0646450  52.9677570  10.9368750  83.9955600  52.1646870  12.2183530
  73.9727300  51.3292540  11.7126730  74.5210290  51.1480590  10.9492840
  74.0382610  50.5386650  12.2483040  74.7459060  67.9198190   9.7226930
  74.1519380  67.7882890  10.4616970  74.7382900  67.0836330   9.2569030
  84.1914080  51.2130420   7.9256960  83.3173920  51.5465530   7.7229890
  84.0824830  50.7403600   8.7508830  74.3771290  65.2856570   8.6734970
  73.6505350  64.6661860   8.6060920  74.4380440  65.6797180   7.8033050
  77.9816390  67.5001570   5.4584380  78.4981410  66.8888930   4.9332640
  78.6313770  68.0030350   5.9495390  80.7211890  68.3910060   6.2853360
  81.0089700  68.1364360   5.4086370  81.2335110  67.8387420   6.8758930
  81.9388900  52.1300260   6.8649870  81.1560690  52.6045760   7.1446630
  81.6451830  51.2255090   6.7563050  72.6601290  68.6030960   1.8831730
  72.4923330  67.9701640   2.5813620  71.7935800  68.8090360   1.5325920
  79.8243120  54.5487010   2.3765900  79.0117630  54.1743900   2.0361780
  80.3284760  53.7932090   2.6787090  80.7884250  69.3126160  13.6521560
  81.7151560  69.0770430  13.6957520  80.7734680  70.1398160  13.1707590
  77.9747860  51.9770910  13.4163440  77.6932130  52.4804510  12.6524260
  78.3567560  51.1792660  13.0505570  83.4821470  40.6373470  78.2296100
  83.4015520  39.7228080  77.9587810  83.0685890  41.1340540  77.5235810
  81.6139510  42.4152490  80.1105370  80.8381610  41.9352930  80.4003940
  82.2652440  41.7358140  79.9361530  75.6305340  42.7272300  80.9881130
  74.7990220  42.4721010  81.3877640  76.2386320  42.7983070  81.7239050
  75.6106600  46.7612390  81.1839150  75.9134640  45.8710130  81.0049370
  76.3550190  47.3182610  80.9561400  74.0397290  37.6874190  74.7723520
  73.1513990  38.0290160  74.6703400  74.3238480  37.4874510  73.8804350
  72.0030300  40.2879840  80.6563220  72.5746410  39.5202040  80.6566860
  72.0031840  40.5868600  79.7469830  81.8610250  49.1070690  78.5108490
  81.2421690  49.5628190  77.9402930  82.7162030  49.2622150  78.1098190
  81.0548500  45.0909680  80.1175530  80.9856780  44.1499620  79.9564660
  81.8168360  45.1811090  80.6898100  73.2455170  35.6964200  82.4432150
  73.0658010  34.7989950  82.7234910  72.8435250  36.2436070  83.1179100
  82.0853670  37.8980060  80.3444460  82.4618490  37.0251940  80.2318130
  81.9873180  38.2338760  79.4534900  76.2158680  36.2705690  75.8061900
  76.3225430  37.1709420  76.1130660  75.3051040  36.2223660  75.5156550
  73.8641840  38.1924700  81.0514490  74.5451950  38.4563070  81.6701890
  73.5489890  37.3525570  81.3852500  78.0566410  39.2392060  80.1387080
  78.5644630  39.7373030  80.7792100  78.5879650  38.4627260  79.9626440
  82.7273600  43.9909930  75.9040400  82.1090870  44.4559380  75.3403120
  83.2396850  44.6837410  76.3209910  77.5905360  43.5185800  82.5824000
  77.2574740  44.1454720  83.2245070  77.7672040  44.0447680  81.8025670
  76.0217840  35.5900580  82.4120950  76.3634650  36.4342630  82.1174820
  75.0833650  35.7384320  82.5286290  72.0956800  44.6766460  73.2780030
  71.7184780  45.1653560  72.5464930  72.3529870  45.3491740  73.9086560
  79.7045730  33.0782850  78.7365540  80.0120710  32.5229740  78.0201040
  78.7746430  33.2127310  78.5538530  82.0926490  41.1431680  75.4725660
  81.1655770  41.0769060  75.7014130  82.2451310  42.0811810  75.3580900
  82.0795570  37.4148680  72.4692820  81.1399240  37.5762640  72.5545280
  82.3978830  38.1334360  71.9228810  77.6983130  41.6696420  78.2545390
  77.2940130  40.9573670  77.7591290  77.7846250  41.3249660  79.1433430
  78.1664830  45.3563980  80.4184600  77.8693120  44.7509450  79.7392380
  79.1164650  45.3941290  80.3073960  76.4111750  38.4439630  82.0344430
  76.9626340  38.5534970  81.2597680  76.9255260  38.8177230  82.7499660
  82.4083860  46.8834860  76.9514900  82.8479770  47.6259190  76.5370290
  82.3470750  47.1261430  77.8753860  74.3987760  40.5641400  75.7552040
  74.2785360  41.2903490  75.1433310  74.0888650  39.7944310  75.2779950
  72.0373130  43.7356540  81.5620680  72.1153550  43.8705310  80.6176400
  72.6514810  43.0272430  81.7548800  73.2820760  45.4356730  77.9726860
  72.8748840  45.5771320  77.1180460  74.1733770  45.1516890  77.7698070
  77.5542420  49.6502510  76.0849530  77.3784900  48.7338050  75.8717330
  76.6998160  50.0089800  76.3247330  84.3430100  49.0054250  76.9424400
  84.7987050  48.2243630  77.2563020  84.6822620  49.7161070  77.4865580
  76.8651420  33.9076470  79.1375710  76.4219570  34.6886010  78.8060230
  77.4236410  34.2306360  79.8446650  79.9810240  33.5287170  74.0181540
  79.3564420  33.5247040  74.7434850  79.8940360  32.6618130  73.6217510
  78.9027320  34.4523800  80.9965310  79.1999650  35.3586630  80.9157330
  79.4512880  33.9642580  80.3824880  76.6565640  39.0310040  76.8656960
  76.4306560  38.8147210  77.7703580  75.8758170  39.4638500  76.5202930
  83.8863400  39.0373410  75.4647610  83.2872290  39.7609210  75.2811230
  84.4343010  38.9750190  74.6824060  82.4928270  37.6736950  77.4950890
  82.8857840  37.9909150  76.6819580  82.8545120  36.7948830  77.6095410
  71.5292440  34.2637750  79.7181090  71.2405490  34.8340610  80.4306070
  72.2738200  33.7842200  80.0812320  71.7162670  38.2057870  70.9283810
  71.6337340  39.1488630  71.0698800  71.3645730  38.0632780  70.0496160
  83.0783410  40.2642700  81.5901670  82.3464530  40.7729510  81.9391770
  82.6807750  39.4472680  81.2890450  79.5160800  36.9396900  79.9954160
  79.5196860  36.4986850  79.1458700  80.4111920  37.2614230  80.1025980
  75.3663180  36.8223390  78.9548370  75.0263230  37.2998620  79.7115420
  74.6040500  36.3688510  78.5949470  79.5780950  37.9408980  72.9860920
  79.6993770  37.8995460  73.9346740  79.1929460  38.8033130  72.8307650
  83.5409320  35.7176380  81.0024610  83.5582060  36.1685030  81.8466460
  83.2924900  34.8182020  81.2158050  78.5902450  40.2510120  72.3844220
  78.0219350  39.8028370  71.7580130  79.2991450  40.6102900  71.8509370
  79.8168770  40.9998680  81.7419570  80.1838900  40.5257250  82.4880910
  79.6273830  41.8740250  82.0827910  72.6809260  35.7442370  77.8713040
  72.3956180  35.3798040  78.7091660  72.6188120  35.0122830  77.2576180
  76.1349930  44.2468310  74.6570630  75.3612190  43.7065930  74.4969350
  76.8644560  43.7274920  74.3188390  82.3547850  34.6371630  74.5926410
  81.5412460  34.1384800  74.5171720  82.1609800  35.4769880  74.1762760
  76.1787330  43.9148690  78.2949440  76.6966000  43.1116950  78.2406330
  75.7271350  43.8527830  79.1366270  81.0656830  45.1814970  73.5676740
  81.4072530  45.9257200  73.0720060  80.2369540  45.4946090  73.9301570
  83.9484240  44.5030810  78.9322250  84.3008060  43.9058940  78.2723620
  83.0646570  44.1775040  79.1030500  80.0347520  45.2628500  76.3392660
  80.7218650  45.8097710  76.7200250  79.2479940  45.8069230  76.3742270
  72.1739920  40.8801320  71.8309740  73.0434770  41.1626120  72.1145660
  71.6830240  41.6937190  71.7158550  79.3374730  42.2674530  75.9518020
  79.7937510  43.0779780  76.1778210  78.9862940  41.9497670  76.7836510
  75.2386510  32.6112180  76.4240540  75.1101140  32.6030080  77.3725460
  74.4148530  32.9495270  76.0731550  82.9139420  45.7813220  81.8987770
  83.5561650  45.0806380  82.0119940  83.4388770  46.5611660  81.7184660
  72.5411170  50.0928700  72.3971370  72.9008810  50.6918040  71.7428640
  72.4003510  50.6388590  73.1706400  78.5579790  47.4759900  73.2145040
  78.5489890  48.2089590  72.5989550  77.6378150  47.2291480  73.3072000
  74.1586430  42.6974790  73.9591800  73.5514380  43.4373690  73.9687100
  74.6335780  42.7874150  73.1330000  81.5439390  47.5388140  71.8770230
  81.6451370  47.3352130  70.9472210  80.6441130  47.2846420  72.0818010
  79.0665280  38.0968500  75.8594130  78.3581430  38.5654840  76.3007740
  79.3509760  37.4390510  76.4939320  83.0980710  34.8219160  77.2989920
  82.9748490  34.8405290  76.3499430  84.0465270  34.8698100  77.4188320
  80.1857500  50.0574460  76.5717900  80.4399000  50.0195850  75.6497270
  79.2369980  49.9307790  76.5646150  77.2700300  36.4053580  73.2344840
  78.1190830  36.8423730  73.1685030  76.9031570  36.7173840  74.0616900
  76.1691720  42.6585940  71.7080370  76.9354990  42.5467300  72.2705800
  76.2466410  41.9623910  71.0557140  74.8638480  40.0911010  72.3913260
  74.9442070  39.1438520  72.5030660  75.7558230  40.4217890  72.4973920
  75.6653190  50.2406400  79.4947800  76.4015670  49.6921860  79.7656370
  76.0494110  51.1062410  79.3553790  72.5498670  46.3079970  75.3689310
  71.6238450  46.5501110  75.3594720  73.0155100  47.1354230  75.2474060
  78.7755500  49.4136710  71.3173370  79.5684110  49.7025540  70.8655160
  78.2559850  48.9828880  70.6385850  79.2932900  44.6340120  71.1815720
  79.1883540  44.0192470  71.9077100  79.1257120  44.1106010  70.3978730
  82.5335630  43.6960150  71.7857710  81.9845730  44.1429450  72.4300450
  83.1554890  43.1909400  72.3095380  78.2010750  42.6551070  73.6823010
  78.6227170  42.4890940  74.5254400  78.3261590  41.8451300  73.1878150
  80.7138390  41.6788680  70.9300110  81.2344050  40.9637700  70.5641260
  81.3606790  42.3174550  71.2300620  77.0969650  38.7284300  70.6281170
  76.8958710  37.8651660  70.9894510  76.9261700  38.6417660  69.6902770
  75.8952450  35.8284920  70.6159050  76.1978350  35.8352350  69.7078200
  76.6347040  35.4782780  71.1126710  79.1137380  34.7719540  71.6015250
  78.7659380  34.0943530  71.0217700  79.3150150  34.3109050  72.4158640
  81.2786420  49.7600290  73.2201850  82.1737210  50.0985260  73.2420610
  81.3104050  49.0379700  72.5926130  74.9182580  45.1327340  71.4488850
  75.3557450  45.6757010  72.1046430  75.4030310  44.3074290  71.4585190
  72.1328380  47.9216370  78.9009110  72.4631390  47.0537430  78.6687750
  72.5619380  48.1274890  79.7314070  76.7290300  46.2525380  76.5611080
  76.4285840  46.1290350  77.4614990  76.6227790  45.3933970  76.1526810
  72.6218590  48.7886960  81.6390740  72.1849580  48.9687760  82.4714890
  73.1896270  49.5461580  81.4972460  72.4543020  41.3007190  77.9979620
  71.7991860  41.0318830  77.3539320  73.2920970  41.1911670  77.5481600
  71.6681100  38.5106120  73.9404950  70.7645180  38.7736320  73.7656610
  72.1521720  38.7817290  73.1604910  74.2108310  37.5671660  71.8499330
  74.9200010  37.1454880  71.3646610  73.4948250  37.6346890  71.2182680
  73.8582470  33.6210990  70.8901980  74.5810600  34.1619930  71.2083200
  74.1306990  33.3474410  70.0143520  73.5474660  32.8717180  80.7924600
  74.1950850  32.3214560  80.3519760  73.9676500  33.1260330  81.6140410
  77.9816390  48.7258080  80.5558340  78.4981410  48.1145440  80.0306600
  78.6313770  49.2286860  81.0469350  80.7211890  49.6166570  81.3827320
  81.0089700  49.3620870  80.5060330  81.2335110  49.0643930  81.9732890
  81.9388900  33.3556770  81.9623830  81.1560690  33.8302270  82.2420590
  81.6451830  32.4511600  81.8537010  72.6601290  49.8287470  76.9805690
  72.4923330  49.1958150  77.6787580  71.7935800  50.0346870  76.6299880
  73.2829310  33.6604250  74.4837550  74.0408670  33.7733130  73.9101580
  72.8206480  34.4973450  74.4380980  79.8243120  35.7743520  77.4739860
  79.0117630  35.4000410  77.1335740  80.3284760  35.0188600  77.7761050
  74.2663990  48.5220700  74.4255830  73.7411610  48.9028730  73.7217790
  74.1908570  49.1471470  75.1465540  75.6554460  34.1868300  73.0239520
  76.1847220  33.3998100  72.8947470  76.2882780  34.8659490  73.2575050
  77.8492300  33.9243440  76.0784910  77.2195040  33.2230750  76.2455040
  77.3097440  34.6847570  75.8618070  76.8656960  50.4703080  73.3005080
  77.5975780  50.1862360  72.7528970  77.1250630  50.2316360  74.1904460
  76.0271750  46.5867810  73.3051410  75.3980630  47.0552910  73.8537240
  76.1419580  45.7417030  73.7397600  83.4821470  40.6373470  59.4552610
  83.4015520  39.7228080  59.1844320  83.0685890  41.1340540  58.7492320
  81.6139510  42.4152490  61.3361880  80.8381610  41.9352930  61.6260450
  82.2652440  41.7358140  61.1618040  75.6305340  42.7272300  62.2137640
  74.7990220  42.4721010  62.6134150  76.2386320  42.7983070  62.9495560
  75.6106600  46.7612390  62.4095660  75.9134640  45.8710130  62.2305880
  76.3550190  47.3182610  62.1817910  74.0397290  37.6874190  55.9980030
  73.1513990  38.0290160  55.8959910  74.3238480  37.4874510  55.1060860
  72.0030300  40.2879840  61.8819730  72.5746410  39.5202040  61.8823370
  72.0031840  40.5868600  60.9726340  81.8610250  49.1070690  59.7365000
  81.2421690  49.5628190  59.1659440  82.7162030  49.2622150  59.3354700
  81.0548500  45.0909680  61.3432040  80.9856780  44.1499620  61.1821170
  81.8168360  45.1811090  61.9154610  73.2455170  35.6964200  63.6688660
  73.0658010  34.7989950  63.9491420  72.8435250  36.2436070  64.3435610
  82.0853670  37.8980060  61.5700970  82.4618490  37.0251940  61.4574640
  81.9873180  38.2338760  60.6791410  76.2158680  36.2705690  57.0318410
  76.3225430  37.1709420  57.3387170  75.3051040  36.2223660  56.7413060
  73.8641840  38.1924700  62.2771000  74.5451950  38.4563070  62.8958400
  73.5489890  37.3525570  62.6109010  78.0566410  39.2392060  61.3643590
  78.5644630  39.7373030  62.0048610  78.5879650  38.4627260  61.1882950
  76.3402510  33.8790620  65.6307010  76.3420950  34.3963010  64.8252910
  75.5106820  33.4020800  65.6076940  82.7273600  43.9909930  57.1296910
  82.1090870  44.4559380  56.5659630  83.2396850  44.6837410  57.5466420
  77.5905360  43.5185800  63.8080510  77.2574740  44.1454720  64.4501580
  77.7672040  44.0447680  63.0282180  76.0217840  35.5900580  63.6377460
  76.3634650  36.4342630  63.3431330  75.0833650  35.7384320  63.7542800
  76.8024460  45.4866600  65.6229690  77.4198460  46.1617680  65.3414140
  75.9417580  45.8954580  65.5317190  72.0956800  44.6766460  54.5036540
  71.7184780  45.1653560  53.7721440  72.3529870  45.3491740  55.1343070
  79.7045730  33.0782850  59.9622050  80.0120710  32.5229740  59.2457550
  78.7746430  33.2127310  59.7795040  82.0926490  41.1431680  56.6982170
  81.1655770  41.0769060  56.9270640  82.2451310  42.0811810  56.5837410
  82.0795570  37.4148680  53.6949330  81.1399240  37.5762640  53.7801790
  82.3978830  38.1334360  53.1485320  77.6983130  41.6696420  59.4801900
  77.2940130  40.9573670  58.9847800  77.7846250  41.3249660  60.3689940
  78.1664830  45.3563980  61.6441110  77.8693120  44.7509450  60.9648890
  79.1164650  45.3941290  61.5330470  76.4111750  38.4439630  63.2600940
  76.9626340  38.5534970  62.4854190  76.9255260  38.8177230  63.9756170
  77.2583260  45.0945670  68.2948910  76.3611790  45.3185640  68.5422310
  77.2836130  45.2180610  67.3460310  76.0854480  41.9658990  66.8706280
  75.9462250  42.8381790  67.2393680  75.2035840  41.6231800  66.7254220
  82.4083860  46.8834860  58.1771410  82.8479770  47.6259190  57.7626800
  82.3470750  47.1261430  59.1010370  77.8834830  47.9080690  69.0791430
  77.8550260  48.3123640  68.2119860  77.7199800  46.9791050  68.9163030
  74.3987760  40.5641400  56.9808550  74.2785360  41.2903490  56.3689820
  74.0888650  39.7944310  56.5036460  72.0373130  43.7356540  62.7877190
  72.1153550  43.8705310  61.8432910  72.6514810  43.0272430  62.9805310
  73.2820760  45.4356730  59.1983370  72.8748840  45.5771320  58.3436970
  74.1733770  45.1516890  58.9954580  83.0999640  49.5848640  66.1050420
  83.6144310  49.4956650  66.9072850  82.2568720  49.9308340  66.3978330
  77.5542420  49.6502510  57.3106040  77.3784900  48.7338050  57.0973840
  76.6998160  50.0089800  57.5503840  84.3430100  49.0054250  58.1680910
  84.7987050  48.2243630  58.4819530  84.6822620  49.7161070  58.7122090
  72.0932650  44.7770710  65.3271650  72.2563690  44.3076070  64.5091020
  72.5585100  44.2694270  65.9920490  76.8651420  33.9076470  60.3632220
  76.4219570  34.6886010  60.0316740  77.4236410  34.2306360  61.0703160
  81.1521230  36.7744990  65.9667540  80.6900600  36.9828010  66.7787480
  80.7499340  35.9604340  65.6638210  83.2475450  39.4955690  69.1962990
  83.5728860  38.6619440  68.8565220  84.0355780  40.0184210  69.3441320
  79.9810240  33.5287170  55.2438050  79.3564420  33.5247040  55.9691360
  79.8940360  32.6618130  54.8474020  78.9027320  34.4523800  62.2221820
  79.1999650  35.3586630  62.1413840  79.4512880  33.9642580  61.6081390
  76.6565640  39.0310040  58.0913470  76.4306560  38.8147210  58.9960090
  75.8758170  39.4638500  57.7459440  83.8863400  39.0373410  56.6904120
  83.2872290  39.7609210  56.5067740  84.4343010  38.9750190  55.9080570
  79.0964850  39.9295620  68.7573740  79.0008450  38.9890350  68.6074140
  79.9396830  40.1510690  68.3621810  82.4928270  37.6736950  58.7207400
  82.8857840  37.9909150  57.9076090  82.8545120  36.7948830  58.8351920
  74.2275390  36.3409290  66.9107520  73.8338780  37.1884500  67.1180300
  73.5393790  35.7035660  67.1016160  80.8020440  36.4244260  69.9804260
  80.1118760  36.2316460  70.6150350  81.5452740  36.7078900  70.5128560
  71.5292440  34.2637750  60.9437600  71.2405490  34.8340610  61.6562580
  72.2738200  33.7842200  61.3068830  71.7162670  38.2057870  52.1540320
  71.6337340  39.1488630  52.2955310  71.3645730  38.0632780  51.2752670
  83.0783410  40.2642700  62.8158180  82.3464530  40.7729510  63.1648280
  82.6807750  39.4472680  62.5146960  79.5160800  36.9396900  61.2210670
  79.5196860  36.4986850  60.3715210  80.4111920  37.2614230  61.3282490
  75.3663180  36.8223390  60.1804880  75.0263230  37.2998620  60.9371930
  74.6040500  36.3688510  59.8205980  79.5780950  37.9408980  54.2117430
  79.6993770  37.8995460  55.1603250  79.1929460  38.8033130  54.0564160
  83.5409320  35.7176380  62.2281120  83.5582060  36.1685030  63.0722970
  83.2924900  34.8182020  62.4414560  78.5902450  40.2510120  53.6100730
  78.0219350  39.8028370  52.9836640  79.2991450  40.6102900  53.0765880
  73.6671630  44.1522140  67.4867460  73.2826420  43.5115810  68.0850420
  73.9783820  44.8558260  68.0562190  79.8168770  40.9998680  62.9676080
  80.1838900  40.5257250  63.7137420  79.6273830  41.8740250  63.3084420
  72.6809260  35.7442370  59.0969550  72.3956180  35.3798040  59.9348170
  72.6188120  35.0122830  58.4832690  77.6068140  40.0407320  65.2860290
  77.3025210  40.9199300  65.5110650  78.5614600  40.1007110  65.3217730
  76.1349930  44.2468310  55.8827140  75.3612190  43.7065930  55.7225860
  76.8644560  43.7274920  55.5444900  82.3547850  34.6371630  55.8182920
  81.5412460  34.1384800  55.7428230  82.1609800  35.4769880  55.4019270
  82.2756710  43.3142730  67.5622530  82.2094020  42.3938400  67.3080120
  81.6461850  43.4118170  68.2767170  76.1787330  43.9148690  59.5205950
  76.6966000  43.1116950  59.4662840  75.7271350  43.8527830  60.3622780
  81.0656830  45.1814970  54.7933250  81.4072530  45.9257200  54.2976570
  80.2369540  45.4946090  55.1558080  73.6631870  40.8810060  66.4331650
  73.3046810  41.5463910  67.0204990  73.3686430  40.0493610  66.8044270
  76.8644990  41.3394300  69.3171200  76.5645130  41.4851480  68.4199020
  77.6356230  40.7799590  69.2244590  82.2073440  46.1363300  67.3126330
  82.2217980  45.2044260  67.0945240  81.4998540  46.2223060  67.9516100
  83.9484240  44.5030810  60.1578760  84.3008060  43.9058940  59.4980130
  83.0646570  44.1775040  60.3287010  80.0347520  45.2628500  57.5649170
  80.7218650  45.8097710  57.9456760  79.2479940  45.8069230  57.5998780
  72.1739920  40.8801320  53.0566250  73.0434770  41.1626120  53.3402170
  71.6830240  41.6937190  52.9415060  79.3374730  42.2674530  57.1774530
  79.7937510  43.0779780  57.4034720  78.9862940  41.9497670  58.0093020
  81.6407340  47.7780870  64.4066830  82.2849560  47.9840250  65.0840250
  82.0036780  47.0169270  63.9537680  75.2386510  32.6112180  57.6497050
  75.1101140  32.6030080  58.5981970  74.4148530  32.9495270  57.2988060
  82.9139420  45.7813220  63.1244280  83.5561650  45.0806380  63.2376450
  83.4388770  46.5611660  62.9441170  72.5411170  50.0928700  53.6227880
  72.9008810  50.6918040  52.9685150  72.4003510  50.6388590  54.3962910
  72.2380440  34.3703300  67.1103750  71.5238960  34.5700220  67.7156360
  72.6575480  33.5942870  67.4818550  72.5253030  48.3583560  68.0970280
  72.6344150  47.4178300  67.9565670  71.8733590  48.6238310  67.4484010
  80.5165620  46.6299450  69.4968400  80.1962490  45.9108690  70.0414090
  79.8423980  47.3054520  69.5704460  78.5579790  47.4759900  54.4401550
  78.5489890  48.2089590  53.8246060  77.6378150  47.2291480  54.5328510
  74.1586430  42.6974790  55.1848310  73.5514380  43.4373690  55.1943610
  74.6335780  42.7874150  54.3586510  83.7319220  36.8625610  64.8605200
  84.1000040  36.0420820  65.1884770  82.8717420  36.9227500  65.2760850
  81.5439390  47.5388140  53.1026740  81.6451370  47.3352130  52.1728720
  80.6441130  47.2846420  53.3074520  79.0665280  38.0968500  57.0850640
  78.3581430  38.5654840  57.5264250  79.3509760  37.4390510  57.7195830
  80.6921210  39.5165200  65.0843170  81.1906460  39.9911020  65.7495020
  80.8344160  38.5928720  65.2913200  83.0980710  34.8219160  58.5246430
  82.9748490  34.8405290  57.5755940  84.0465270  34.8698100  58.6444830
  80.1857500  50.0574460  57.7974410  80.4399000  50.0195850  56.8753780
  79.2369980  49.9307790  57.7902660  77.2700300  36.4053580  54.4601350
  78.1190830  36.8423730  54.3941540  76.9031570  36.7173840  55.2873410
  76.1691720  42.6585940  52.9336880  76.9354990  42.5467300  53.4962310
  76.2466410  41.9623910  52.2813650  74.8638480  40.0911010  53.6169770
  74.9442070  39.1438520  53.7287170  75.7558230  40.4217890  53.7230430
  75.6653190  50.2406400  60.7204310  76.4015670  49.6921860  60.9912880
  76.0494110  51.1062410  60.5810300  72.5498670  46.3079970  56.5945820
  71.6238450  46.5501110  56.5851230  73.0155100  47.1354230  56.4730570
  74.6711470  49.4252470  69.9089890  75.4724200  49.7464520  70.3225290
  74.1563290  49.0648050  70.6309800  78.7755500  49.4136710  52.5429880
  79.5684110  49.7025540  52.0911670  78.2559850  48.9828880  51.8642360
  83.5076100  45.5332340  69.8565300  82.9014260  45.5563940  69.1161050
  83.2030210  44.8015380  70.3932550  72.3909280  41.9125930  68.8525940
  72.8948300  41.3333210  69.4242170  71.6516700  42.1966160  69.3902310
  79.2932900  44.6340120  52.4072230  79.1883540  44.0192470  53.1333610
  79.1257120  44.1106010  51.6235240  79.4447220  43.3196920  68.3861460
  78.6792890  43.8881920  68.3016130  79.6263180  43.0273130  67.4929690
  82.5335630  43.6960150  53.0114220  81.9845730  44.1429450  53.6556960
  83.1554890  43.1909400  53.5351890  74.4232360  40.0555520  69.7476010
  74.4637700  39.7569390  70.6561240  75.2777860  40.4563130  69.5883530
  78.2010750  42.6551070  54.9079520  78.6227170  42.4890940  55.7510910
  78.3261590  41.8451300  54.4134660  76.3638170  38.6347620  67.7150500
  75.8334630  38.1438570  67.0873840  77.0326240  39.0631820  67.1808430
  80.7138390  41.6788680  52.1556620  81.2344050  40.9637700  51.7897770
  81.3606790  42.3174550  52.4557130  76.8510470  35.6009990  67.7947790
  76.7567340  34.9830740  67.0698660  76.2707860  36.3276280  67.5677700
  79.6171910  34.1583230  64.8275180  79.1689210  34.1807490  63.9820730
  78.9837110  33.7602250  65.4245480  80.0231460  43.0537560  65.4487620
  80.4419570  43.8970290  65.2763860  79.1040090  43.1909600  65.2194400
  82.3595360  40.7853740  66.8325460  82.4791570  40.1894880  67.5720300
  83.2189360  40.8223430  66.4126760  77.0969650  38.7284300  51.8537680
  76.8958710  37.8651660  52.2151020  76.9261700  38.6417660  50.9159280
  77.8738880  49.3590570  66.5645350  77.3359970  50.0836630  66.2454050
  78.1272840  48.8820910  65.7742690  79.1264130  37.3275090  68.0901280
  79.7163820  37.0190940  68.7779100  78.3084370  36.8554840  68.2461180
  83.9457560  36.9440900  68.3234300  83.2573080  36.2822440  68.2584290
  84.6663580  36.4979170  68.7682760  75.8952450  35.8284920  51.8415560
  76.1978350  35.8352350  50.9334710  76.6347040  35.4782780  52.3383220
  80.7301090  50.5941780  66.8232000  80.6559790  51.4976920  67.1304370
  79.8279930  50.2753680  66.7954070  79.1137380  34.7719540  52.8271760
  78.7659380  34.0943530  52.2474210  79.3150150  34.3109050  53.6415150
  81.2786420  49.7600290  54.4458360  82.1737210  50.0985260  54.4677120
  81.3104050  49.0379700  53.8182640  74.9182580  45.1327340  52.6745360
  75.3557450  45.6757010  53.3302940  75.4030310  44.3074290  52.6841700
  72.1328380  47.9216370  60.1265620  72.4631390  47.0537430  59.8944260
  72.5619380  48.1274890  60.9570580  76.7290300  46.2525380  57.7867590
  76.4285840  46.1290350  58.6871500  76.6227790  45.3933970  57.3783320
  72.6218590  48.7886960  62.8647250  72.1849580  48.9687760  63.6971400
  73.1896270  49.5461580  62.7228970  72.4543020  41.3007190  59.2236130
  71.7991860  41.0318830  58.5795830  73.2920970  41.1911670  58.7738110
  73.4918950  41.6859760  63.7639470  73.8591990  41.5987160  64.6435490
  72.9229770  40.9226310  63.6646330  73.0434950  38.5968850  67.6697890
  72.1491000  38.5635610  68.0091600  73.5832500  38.7955640  68.4349140
  71.6681100  38.5106120  55.1661460  70.7645180  38.7736320  54.9913120
  72.1521720  38.7817290  54.3861420  74.2108310  37.5671660  53.0755840
  74.9200010  37.1454880  52.5903120  73.4948250  37.6346890  52.4439190
  73.8582470  33.6210990  52.1158490  74.5810600  34.1619930  52.4339710
  74.1306990  33.3474410  51.2400030  73.5474660  32.8717180  62.0181110
  74.1950850  32.3214560  61.5776270  73.9676500  33.1260330  62.8396920
  73.3006660  33.0272850  64.7606430  72.9521480  33.4836670  65.5264610
  72.9694360  32.1329980  64.8428860  74.9071030  46.1992450  68.9259620
  74.8640660  45.8285360  69.8074080  75.0382040  47.1370020  69.0661440
  78.6077060  47.7552040  64.5269340  78.3668420  48.0226600  63.6399860
  79.5479700  47.9257770  64.5820200  80.8131480  34.2184730  68.2825850
  80.7520370  34.8106560  69.0321260  81.7531860  34.1110690  68.1376110
  83.4506040  33.8754790  67.9218140  84.0646450  34.1934080  67.2599220
  83.9955600  33.3903380  68.5414000  73.9727300  32.5549050  68.0357200
  74.5210290  32.3737100  67.2723310  74.0382610  31.7643160  68.5713510
  74.7459060  49.1454700  66.0457400  74.1519380  49.0139400  66.7847440
  74.7382900  48.3092840  65.5799500  84.1914080  32.4386930  64.2487430
  83.3173920  32.7722040  64.0460360  84.0824830  31.9660110  65.0739300
  74.3771290  46.5113080  64.9965440  73.6505350  45.8918370  64.9291390
  74.4380440  46.9053690  64.1263520  77.9816390  48.7258080  61.7814850
  78.4981410  48.1145440  61.2563110  78.6313770  49.2286860  62.2725860
  80.7211890  49.6166570  62.6083830  81.0089700  49.3620870  61.7316840
  81.2335110  49.0643930  63.1989400  81.9388900  33.3556770  63.1880340
  81.1560690  33.8302270  63.4677100  81.6451830  32.4511600  63.0793520
  72.6601290  49.8287470  58.2062200  72.4923330  49.1958150  58.9044090
  71.7935800  50.0346870  57.8556390  73.2829310  33.6604250  55.7094060
  74.0408670  33.7733130  55.1358090  72.8206480  34.4973450  55.6637490
  79.8243120  35.7743520  58.6996370  79.0117630  35.4000410  58.3592250
  80.3284760  35.0188600  59.0017560  74.2663990  48.5220700  55.6512340
  73.7411610  48.9028730  54.9474300  74.1908570  49.1471470  56.3722050
  75.6554460  34.1868300  54.2496030  76.1847220  33.3998100  54.1203980
  76.2882780  34.8659490  54.4831560  77.8492300  33.9243440  57.3041420
  77.2195040  33.2230750  57.4711550  77.3097440  34.6847570  57.0874580
  80.7884250  50.5382670  69.9752030  81.7151560  50.3026940  70.0187990
  80.7734680  51.3654670  69.4938060  77.9747860  33.2027420  69.7393910
  77.6932130  33.7061020  68.9754730  78.3567560  32.4049170  69.3736040
  76.8656960  50.4703080  54.5261590  77.5975780  50.1862360  53.9785480
  77.1250630  50.2316360  55.4160970  76.0271750  46.5867810  54.5307920
  75.3980630  47.0552910  55.0793750  76.1419580  45.7417030  54.9654110
  83.4821470  40.6373470  40.6809120  83.4015520  39.7228080  40.4100830
  83.0685890  41.1340540  39.9748830  81.6139510  42.4152490  42.5618390
  80.8381610  41.9352930  42.8516960  82.2652440  41.7358140  42.3874550
  75.6305340  42.7272300  43.4394150  74.7990220  42.4721010  43.8390660
  76.2386320  42.7983070  44.1752070  75.6106600  46.7612390  43.6352170
  75.9134640  45.8710130  43.4562390  76.3550190  47.3182610  43.4074420
  74.0397290  37.6874190  37.2236540  73.1513990  38.0290160  37.1216420
  74.3238480  37.4874510  36.3317370  81.8610250  49.1070690  40.9621510
  81.2421690  49.5628190  40.3915950  82.7162030  49.2622150  40.5611210
  81.0548500  45.0909680  42.5688550  80.9856780  44.1499620  42.4077680
  81.8168360  45.1811090  43.1411120  73.2455170  35.6964200  44.8945170
  73.0658010  34.7989950  45.1747930  72.8435250  36.2436070  45.5692120
  82.0853670  37.8980060  42.7957480  82.4618490  37.0251940  42.6831150
  81.9873180  38.2338760  41.9047920  76.2158680  36.2705690  38.2574920
  76.3225430  37.1709420  38.5643680  75.3051040  36.2223660  37.9669570
  73.8641840  38.1924700  43.5027510  74.5451950  38.4563070  44.1214910
  73.5489890  37.3525570  43.8365520  78.0566410  39.2392060  42.5900100
  78.5644630  39.7373030  43.2305120  78.5879650  38.4627260  42.4139460
  76.3402510  33.8790620  46.8563520  76.3420950  34.3963010  46.0509420
  75.5106820  33.4020800  46.8333450  82.7273600  43.9909930  38.3553420
  82.1090870  44.4559380  37.7916140  83.2396850  44.6837410  38.7722930
  77.5905360  43.5185800  45.0337020  77.2574740  44.1454720  45.6758090
  77.7672040  44.0447680  44.2538690  76.0217840  35.5900580  44.8633970
  76.3634650  36.4342630  44.5687840  75.0833650  35.7384320  44.9799310
  76.8024460  45.4866600  46.8486200  77.4198460  46.1617680  46.5670650
  75.9417580  45.8954580  46.7573700  79.7045730  33.0782850  41.1878560
  80.0120710  32.5229740  40.4714060  78.7746430  33.2127310  41.0051550
  82.0926490  41.1431680  37.9238680  81.1655770  41.0769060  38.1527150
  82.2451310  42.0811810  37.8093920  82.0795570  37.4148680  34.9205840
  81.1399240  37.5762640  35.0058300  82.3978830  38.1334360  34.3741830
  77.6983130  41.6696420  40.7058410  77.2940130  40.9573670  40.2104310
  77.7846250  41.3249660  41.5946450  78.1664830  45.3563980  42.8697620
  77.8693120  44.7509450  42.1905400  79.1164650  45.3941290  42.7586980
  76.4111750  38.4439630  44.4857450  76.9626340  38.5534970  43.7110700
  76.9255260  38.8177230  45.2012680  77.2583260  45.0945670  49.5205420
  76.3611790  45.3185640  49.7678820  77.2836130  45.2180610  48.5716820
  76.0854480  41.9658990  48.0962790  75.9462250  42.8381790  48.4650190
  75.2035840  41.6231800  47.9510730  82.4083860  46.8834860  39.4027920
  82.8479770  47.6259190  38.9883310  82.3470750  47.1261430  40.3266880
  77.8834830  47.9080690  50.3047940  77.8550260  48.3123640  49.4376370
  77.7199800  46.9791050  50.1419540  74.3987760  40.5641400  38.2065060
  74.2785360  41.2903490  37.5946330  74.0888650  39.7944310  37.7292970
  72.0373130  43.7356540  44.0133700  72.1153550  43.8705310  43.0689420
  72.6514810  43.0272430  44.2061820  73.2820760  45.4356730  40.4239880
  72.8748840  45.5771320  39.5693480  74.1733770  45.1516890  40.2211090
  83.0999640  49.5848640  47.3306930  83.6144310  49.4956650  48.1329360
  82.2568720  49.9308340  47.6234840  77.5542420  49.6502510  38.5362550
  77.3784900  48.7338050  38.3230350  76.6998160  50.0089800  38.7760350
  84.3430100  49.0054250  39.3937420  84.7987050  48.2243630  39.7076040
  84.6822620  49.7161070  39.9378600  72.0932650  44.7770710  46.5528160
  72.2563690  44.3076070  45.7347530  72.5585100  44.2694270  47.2177000
  76.8651420  33.9076470  41.5888730  76.4219570  34.6886010  41.2573250
  77.4236410  34.2306360  42.2959670  81.1521230  36.7744990  47.1924050
  80.6900600  36.9828010  48.0043990  80.7499340  35.9604340  46.8894720
  83.2475450  39.4955690  50.4219500  83.5728860  38.6619440  50.0821730
  84.0355780  40.0184210  50.5697830  79.9810240  33.5287170  36.4694560
  79.3564420  33.5247040  37.1947870  79.8940360  32.6618130  36.0730530
  78.9027320  34.4523800  43.4478330  79.1999650  35.3586630  43.3670350
  79.4512880  33.9642580  42.8337900  76.6565640  39.0310040  39.3169980
  76.4306560  38.8147210  40.2216600  75.8758170  39.4638500  38.9715950
  83.8863400  39.0373410  37.9160630  83.2872290  39.7609210  37.7324250
  84.4343010  38.9750190  37.1337080  79.0964850  39.9295620  49.9830250
  79.0008450  38.9890350  49.8330650  79.9396830  40.1510690  49.5878320
  82.4928270  37.6736950  39.9463910  82.8857840  37.9909150  39.1332600
  82.8545120  36.7948830  40.0608430  74.2275390  36.3409290  48.1364030
  73.8338780  37.1884500  48.3436810  73.5393790  35.7035660  48.3272670
  80.8020440  36.4244260  51.2060770  80.1118760  36.2316460  51.8406860
  81.5452740  36.7078900  51.7385070  71.5292440  34.2637750  42.1694110
  71.2405490  34.8340610  42.8819090  72.2738200  33.7842200  42.5325340
  83.0783410  40.2642700  44.0414690  82.3464530  40.7729510  44.3904790
  82.6807750  39.4472680  43.7403470  79.5160800  36.9396900  42.4467180
  79.5196860  36.4986850  41.5971720  80.4111920  37.2614230  42.5539000
  75.3663180  36.8223390  41.4061390  75.0263230  37.2998620  42.1628440
  74.6040500  36.3688510  41.0462490  79.5780950  37.9408980  35.4373940
  79.6993770  37.8995460  36.3859760  79.1929460  38.8033130  35.2820670
  83.5409320  35.7176380  43.4537630  83.5582060  36.1685030  44.2979480
  83.2924900  34.8182020  43.6671070  78.5902450  40.2510120  34.8357240
  78.0219350  39.8028370  34.2093150  79.2991450  40.6102900  34.3022390
  73.6671630  44.1522140  48.7123970  73.2826420  43.5115810  49.3106930
  73.9783820  44.8558260  49.2818700  79.8168770  40.9998680  44.1932590
  80.1838900  40.5257250  44.9393930  79.6273830  41.8740250  44.5340930
  72.6809260  35.7442370  40.3226060  72.3956180  35.3798040  41.1604680
  72.6188120  35.0122830  39.7089200  77.6068140  40.0407320  46.5116800
  77.3025210  40.9199300  46.7367160  78.5614600  40.1007110  46.5474240
  76.1349930  44.2468310  37.1083650  75.3612190  43.7065930  36.9482370
  76.8644560  43.7274920  36.7701410  82.3547850  34.6371630  37.0439430
  81.5412460  34.1384800  36.9684740  82.1609800  35.4769880  36.6275780
  82.2756710  43.3142730  48.7879040  82.2094020  42.3938400  48.5336630
  81.6461850  43.4118170  49.5023680  76.1787330  43.9148690  40.7462460
  76.6966000  43.1116950  40.6919350  75.7271350  43.8527830  41.5879290
  81.0656830  45.1814970  36.0189760  81.4072530  45.9257200  35.5233080
  80.2369540  45.4946090  36.3814590  73.6631870  40.8810060  47.6588160
  73.3046810  41.5463910  48.2461500  73.3686430  40.0493610  48.0300780
  76.8644990  41.3394300  50.5427710  76.5645130  41.4851480  49.6455530
  77.6356230  40.7799590  50.4501100  82.2073440  46.1363300  48.5382840
  82.2217980  45.2044260  48.3201750  81.4998540  46.2223060  49.1772610
  83.9484240  44.5030810  41.3835270  84.3008060  43.9058940  40.7236640
  83.0646570  44.1775040  41.5543520  80.0347520  45.2628500  38.7905680
  80.7218650  45.8097710  39.1713270  79.2479940  45.8069230  38.8255290
  79.3374730  42.2674530  38.4031040  79.7937510  43.0779780  38.6291230
  78.9862940  41.9497670  39.2349530  81.6407340  47.7780870  45.6323340
  82.2849560  47.9840250  46.3096760  82.0036780  47.0169270  45.1794190
  75.2386510  32.6112180  38.8753560  75.1101140  32.6030080  39.8238480
  74.4148530  32.9495270  38.5244570  82.9139420  45.7813220  44.3500790
  83.5561650  45.0806380  44.4632960  83.4388770  46.5611660  44.1697680
  72.5411170  50.0928700  34.8484390  72.9008810  50.6918040  34.1941660
  72.4003510  50.6388590  35.6219420  72.2380440  34.3703300  48.3360260
  71.5238960  34.5700220  48.9412870  72.6575480  33.5942870  48.7075060
  80.5165620  46.6299450  50.7224910  80.1962490  45.9108690  51.2670600
  79.8423980  47.3054520  50.7960970  78.5579790  47.4759900  35.6658060
  78.5489890  48.2089590  35.0502570  77.6378150  47.2291480  35.7585020
  83.7319220  36.8625610  46.0861710  84.1000040  36.0420820  46.4141280
  82.8717420  36.9227500  46.5017360  81.5439390  47.5388140  34.3283250
  81.6451370  47.3352130  33.3985230  80.6441130  47.2846420  34.5331030
  79.0665280  38.0968500  38.3107150  78.3581430  38.5654840  38.7520760
  79.3509760  37.4390510  38.9452340  80.6921210  39.5165200  46.3099680
  81.1906460  39.9911020  46.9751530  80.8344160  38.5928720  46.5169710
  83.0980710  34.8219160  39.7502940  82.9748490  34.8405290  38.8012450
  84.0465270  34.8698100  39.8701340  80.1857500  50.0574460  39.0230920
  80.4399000  50.0195850  38.1010290  79.2369980  49.9307790  39.0159170
  77.2700300  36.4053580  35.6857860  78.1190830  36.8423730  35.6198050
  76.9031570  36.7173840  36.5129920  76.1691720  42.6585940  34.1593390
  76.9354990  42.5467300  34.7218820  76.2466410  41.9623910  33.5070160
  74.8638480  40.0911010  34.8426280  74.9442070  39.1438520  34.9543680
  75.7558230  40.4217890  34.9486940  75.6653190  50.2406400  41.9460820
  76.4015670  49.6921860  42.2169390  76.0494110  51.1062410  41.8066810
  72.5498670  46.3079970  37.8202330  71.6238450  46.5501110  37.8107740
  73.0155100  47.1354230  37.6987080  74.6711470  49.4252470  51.1346400
  75.4724200  49.7464520  51.5481800  74.1563290  49.0648050  51.8566310
  78.7755500  49.4136710  33.7686390  79.5684110  49.7025540  33.3168180
  78.2559850  48.9828880  33.0898870  83.5076100  45.5332340  51.0821810
  82.9014260  45.5563940  50.3417560  83.2030210  44.8015380  51.6189060
  72.3909280  41.9125930  50.0782450  72.8948300  41.3333210  50.6498680
  71.6516700  42.1966160  50.6158820  79.2932900  44.6340120  33.6328740
  79.1883540  44.0192470  34.3590120  79.1257120  44.1106010  32.8491750
  79.4447220  43.3196920  49.6117970  78.6792890  43.8881920  49.5272640
  79.6263180  43.0273130  48.7186200  82.5335630  43.6960150  34.2370730
  81.9845730  44.1429450  34.8813470  83.1554890  43.1909400  34.7608400
  74.4232360  40.0555520  50.9732520  74.4637700  39.7569390  51.8817750
  75.2777860  40.4563130  50.8140040  78.2010750  42.6551070  36.1336030
  78.6227170  42.4890940  36.9767420  78.3261590  41.8451300  35.6391170
  76.3638170  38.6347620  48.9407010  75.8334630  38.1438570  48.3130350
  77.0326240  39.0631820  48.4064940  80.7138390  41.6788680  33.3813130
  81.2344050  40.9637700  33.0154280  81.3606790  42.3174550  33.6813640
  76.8510470  35.6009990  49.0204300  76.7567340  34.9830740  48.2955170
  76.2707860  36.3276280  48.7934210  79.6171910  34.1583230  46.0531690
  79.1689210  34.1807490  45.2077240  78.9837110  33.7602250  46.6501990
  80.0231460  43.0537560  46.6744130  80.4419570  43.8970290  46.5020370
  79.1040090  43.1909600  46.4450910  82.3595360  40.7853740  48.0581970
  82.4791570  40.1894880  48.7976810  83.2189360  40.8223430  47.6383270
  77.0969650  38.7284300  33.0794190  76.8958710  37.8651660  33.4407530
  76.9261700  38.6417660  32.1415790  77.8738880  49.3590570  47.7901860
  77.3359970  50.0836630  47.4710560  78.1272840  48.8820910  46.9999200
  79.1264130  37.3275090  49.3157790  79.7163820  37.0190940  50.0035610
  78.3084370  36.8554840  49.4717690  83.9457560  36.9440900  49.5490810
  83.2573080  36.2822440  49.4840800  84.6663580  36.4979170  49.9939270
  75.8952450  35.8284920  33.0672070  76.1978350  35.8352350  32.1591220
  76.6347040  35.4782780  33.5639730  80.7301090  50.5941780  48.0488510
  80.6559790  51.4976920  48.3560880  79.8279930  50.2753680  48.0210580
  79.1137380  34.7719540  34.0528270  78.7659380  34.0943530  33.4730720
  79.3150150  34.3109050  34.8671660  81.2786420  49.7600290  35.6714870
  82.1737210  50.0985260  35.6933630  81.3104050  49.0379700  35.0439150
  74.9182580  45.1327340  33.9001870  75.3557450  45.6757010  34.5559450
  75.4030310  44.3074290  33.9098210  72.1328380  47.9216370  41.3522130
  72.4631390  47.0537430  41.1200770  72.5619380  48.1274890  42.1827090
  76.7290300  46.2525380  39.0124100  76.4285840  46.1290350  39.9128010
  76.6227790  45.3933970  38.6039830  72.6218590  48.7886960  44.0903760
  72.1849580  48.9687760  44.9227910  73.1896270  49.5461580  43.9485480
  73.4918950  41.6859760  44.9895980  73.8591990  41.5987160  45.8692000
  72.9229770  40.9226310  44.8902840  73.0434950  38.5968850  48.8954400
  72.1491000  38.5635610  49.2348110  73.5832500  38.7955640  49.6605650
  71.6681100  38.5106120  36.3917970  70.7645180  38.7736320  36.2169630
  72.1521720  38.7817290  35.6117930  74.2108310  37.5671660  34.3012350
  74.9200010  37.1454880  33.8159630  73.4948250  37.6346890  33.6695700
  73.8582470  33.6210990  33.3415000  74.5810600  34.1619930  33.6596220
  74.1306990  33.3474410  32.4656540  73.5474660  32.8717180  43.2437620
  74.1950850  32.3214560  42.8032780  73.9676500  33.1260330  44.0653430
  73.3006660  33.0272850  45.9862940  72.9521480  33.4836670  46.7521120
  72.9694360  32.1329980  46.0685370  74.9071030  46.1992450  50.1516130
  74.8640660  45.8285360  51.0330590  75.0382040  47.1370020  50.2917950
  78.6077060  47.7552040  45.7525850  78.3668420  48.0226600  44.8656370
  79.5479700  47.9257770  45.8076710  80.8131480  34.2184730  49.5082360
  80.7520370  34.8106560  50.2577770  81.7531860  34.1110690  49.3632620
  83.4506040  33.8754790  49.1474650  84.0646450  34.1934080  48.4855730
  83.9955600  33.3903380  49.7670510  73.9727300  32.5549050  49.2613710
  74.5210290  32.3737100  48.4979820  74.0382610  31.7643160  49.7970020
  74.7459060  49.1454700  47.2713910  74.1519380  49.0139400  48.0103950
  74.7382900  48.3092840  46.8056010  84.1914080  32.4386930  45.4743940
  83.3173920  32.7722040  45.2716870  84.0824830  31.9660110  46.2995810
  74.3771290  46.5113080  46.2221950  73.6505350  45.8918370  46.1547900
  74.4380440  46.9053690  45.3520030  77.9816390  48.7258080  43.0071360
  78.4981410  48.1145440  42.4819620  78.6313770  49.2286860  43.4982370
  80.7211890  49.6166570  43.8340340  81.0089700  49.3620870  42.9573350
  81.2335110  49.0643930  44.4245910  81.9388900  33.3556770  44.4136850
  81.1560690  33.8302270  44.6933610  81.6451830  32.4511600  44.3050030
  72.6601290  49.8287470  39.4318710  72.4923330  49.1958150  40.1300600
  71.7935800  50.0346870  39.0812900  73.2829310  33.6604250  36.9350570
  74.0408670  33.7733130  36.3614600  72.8206480  34.4973450  36.8894000
  79.8243120  35.7743520  39.9252880  79.0117630  35.4000410  39.5848760
  80.3284760  35.0188600  40.2274070  74.2663990  48.5220700  36.8768850
  73.7411610  48.9028730  36.1730810  74.1908570  49.1471470  37.5978560
  75.6554460  34.1868300  35.4752540  76.1847220  33.3998100  35.3460490
  76.2882780  34.8659490  35.7088070  77.8492300  33.9243440  38.5297930
  77.2195040  33.2230750  38.6968060  77.3097440  34.6847570  38.3131090
  80.7884250  50.5382670  51.2008540  81.7151560  50.3026940  51.2444500
  80.7734680  51.3654670  50.7194570  77.9747860  33.2027420  50.9650420
  77.6932130  33.7061020  50.2011240  78.3567560  32.4049170  50.5992550
  76.8656960  50.4703080  35.7518100  77.5975780  50.1862360  35.2041990
  77.1250630  50.2316360  36.6417480  76.0271750  46.5867810  35.7564430
  75.3980630  47.0552910  36.3050260  76.1419580  45.7417030  36.1910620
  83.4821470  40.6373470  21.9065630  83.4015520  39.7228080  21.6357340
  83.0685890  41.1340540  21.2005340  81.6139510  42.4152490  23.7874900
  80.8381610  41.9352930  24.0773470  82.2652440  41.7358140  23.6131060
  75.6305340  42.7272300  24.6650660  74.7990220  42.4721010  25.0647170
  76.2386320  42.7983070  25.4008580  75.6106600  46.7612390  24.8608680
  75.9134640  45.8710130  24.6818900  76.3550190  47.3182610  24.6330930
  74.0397290  37.6874190  18.4493050  73.1513990  38.0290160  18.3472930
  74.3238480  37.4874510  17.5573880  72.0030300  40.2879840  24.3332750
  72.5746410  39.5202040  24.3336390  72.0031840  40.5868600  23.4239360
  81.8610250  49.1070690  22.1878020  81.2421690  49.5628190  21.6172460
  82.7162030  49.2622150  21.7867720  81.0548500  45.0909680  23.7945060
  80.9856780  44.1499620  23.6334190  81.8168360  45.1811090  24.3667630
  73.2455170  35.6964200  26.1201680  73.0658010  34.7989950  26.4004440
  72.8435250  36.2436070  26.7948630  82.0853670  37.8980060  24.0213990
  82.4618490  37.0251940  23.9087660  81.9873180  38.2338760  23.1304430
  76.2158680  36.2705690  19.4831430  76.3225430  37.1709420  19.7900190
  75.3051040  36.2223660  19.1926080  73.8641840  38.1924700  24.7284020
  74.5451950  38.4563070  25.3471420  73.5489890  37.3525570  25.0622030
  78.0566410  39.2392060  23.8156610  78.5644630  39.7373030  24.4561630
  78.5879650  38.4627260  23.6395970  76.3402510  33.8790620  28.0820030
  76.3420950  34.3963010  27.2765930  75.5106820  33.4020800  28.0589960
  82.7273600  43.9909930  19.5809930  82.1090870  44.4559380  19.0172650
  83.2396850  44.6837410  19.9979440  77.5905360  43.5185800  26.2593530
  77.2574740  44.1454720  26.9014600  77.7672040  44.0447680  25.4795200
  76.0217840  35.5900580  26.0890480  76.3634650  36.4342630  25.7944350
  75.0833650  35.7384320  26.2055820  76.8024460  45.4866600  28.0742710
  77.4198460  46.1617680  27.7927160  75.9417580  45.8954580  27.9830210
  72.0956800  44.6766460  16.9549560  71.7184780  45.1653560  16.2234460
  72.3529870  45.3491740  17.5856090  79.7045730  33.0782850  22.4135070
  80.0120710  32.5229740  21.6970570  78.7746430  33.2127310  22.2308060
  82.0926490  41.1431680  19.1495190  81.1655770  41.0769060  19.3783660
  82.2451310  42.0811810  19.0350430  82.0795570  37.4148680  16.1462350
  81.1399240  37.5762640  16.2314810  82.3978830  38.1334360  15.5998340
  77.6983130  41.6696420  21.9314920  77.2940130  40.9573670  21.4360820
  77.7846250  41.3249660  22.8202960  78.1664830  45.3563980  24.0954130
  77.8693120  44.7509450  23.4161910  79.1164650  45.3941290  23.9843490
  76.4111750  38.4439630  25.7113960  76.9626340  38.5534970  24.9367210
  76.9255260  38.8177230  26.4269190  77.2583260  45.0945670  30.7461930
  76.3611790  45.3185640  30.9935330  77.2836130  45.2180610  29.7973330
  76.0854480  41.9658990  29.3219300  75.9462250  42.8381790  29.6906700
  75.2035840  41.6231800  29.1767240  82.4083860  46.8834860  20.6284430
  82.8479770  47.6259190  20.2139820  82.3470750  47.1261430  21.5523390
  77.8834830  47.9080690  31.5304450  77.8550260  48.3123640  30.6632880
  77.7199800  46.9791050  31.3676050  74.3987760  40.5641400  19.4321570
  74.2785360  41.2903490  18.8202840  74.0888650  39.7944310  18.9549480
  72.0373130  43.7356540  25.2390210  72.1153550  43.8705310  24.2945930
  72.6514810  43.0272430  25.4318330  73.2820760  45.4356730  21.6496390
  72.8748840  45.5771320  20.7949990  74.1733770  45.1516890  21.4467600
  83.0999640  49.5848640  28.5563440  83.6144310  49.4956650  29.3585870
  82.2568720  49.9308340  28.8491350  77.5542420  49.6502510  19.7619060
  77.3784900  48.7338050  19.5486860  76.6998160  50.0089800  20.0016860
  84.3430100  49.0054250  20.6193930  84.7987050  48.2243630  20.9332550
  84.6822620  49.7161070  21.1635110  72.0932650  44.7770710  27.7784670
  72.2563690  44.3076070  26.9604040  72.5585100  44.2694270  28.4433510
  76.8651420  33.9076470  22.8145240  76.4219570  34.6886010  22.4829760
  77.4236410  34.2306360  23.5216180  81.1521230  36.7744990  28.4180560
  80.6900600  36.9828010  29.2300500  80.7499340  35.9604340  28.1151230
  83.2475450  39.4955690  31.6476010  83.5728860  38.6619440  31.3078240
  84.0355780  40.0184210  31.7954340  79.9810240  33.5287170  17.6951070
  79.3564420  33.5247040  18.4204380  79.8940360  32.6618130  17.2987040
  78.9027320  34.4523800  24.6734840  79.1999650  35.3586630  24.5926860
  79.4512880  33.9642580  24.0594410  76.6565640  39.0310040  20.5426490
  76.4306560  38.8147210  21.4473110  75.8758170  39.4638500  20.1972460
  83.8863400  39.0373410  19.1417140  83.2872290  39.7609210  18.9580760
  84.4343010  38.9750190  18.3593590  79.0964850  39.9295620  31.2086760
  79.0008450  38.9890350  31.0587160  79.9396830  40.1510690  30.8134830
  82.4928270  37.6736950  21.1720420  82.8857840  37.9909150  20.3589110
  82.8545120  36.7948830  21.2864940  74.2275390  36.3409290  29.3620540
  73.8338780  37.1884500  29.5693320  73.5393790  35.7035660  29.5529180
  80.8020440  36.4244260  32.4317280  80.1118760  36.2316460  33.0663370
  81.5452740  36.7078900  32.9641580  71.5292440  34.2637750  23.3950620
  71.2405490  34.8340610  24.1075600  72.2738200  33.7842200  23.7581850
  71.7162670  38.2057870  14.6053340  71.6337340  39.1488630  14.7468330
  71.3645730  38.0632780  13.7265690  83.0783410  40.2642700  25.2671200
  82.3464530  40.7729510  25.6161300  82.6807750  39.4472680  24.9659980
  79.5160800  36.9396900  23.6723690  79.5196860  36.4986850  22.8228230
  80.4111920  37.2614230  23.7795510  75.3663180  36.8223390  22.6317900
  75.0263230  37.2998620  23.3884950  74.6040500  36.3688510  22.2719000
  79.5780950  37.9408980  16.6630450  79.6993770  37.8995460  17.6116270
  79.1929460  38.8033130  16.5077180  83.5409320  35.7176380  24.6794140
  83.5582060  36.1685030  25.5235990  83.2924900  34.8182020  24.8927580
  78.5902450  40.2510120  16.0613750  78.0219350  39.8028370  15.4349660
  79.2991450  40.6102900  15.5278900  73.6671630  44.1522140  29.9380480
  73.2826420  43.5115810  30.5363440  73.9783820  44.8558260  30.5075210
  79.8168770  40.9998680  25.4189100  80.1838900  40.5257250  26.1650440
  79.6273830  41.8740250  25.7597440  72.6809260  35.7442370  21.5482570
  72.3956180  35.3798040  22.3861190  72.6188120  35.0122830  20.9345710
  77.6068140  40.0407320  27.7373310  77.3025210  40.9199300  27.9623670
  78.5614600  40.1007110  27.7730750  76.1349930  44.2468310  18.3340160
  75.3612190  43.7065930  18.1738880  76.8644560  43.7274920  17.9957920
  82.3547850  34.6371630  18.2695940  81.5412460  34.1384800  18.1941250
  82.1609800  35.4769880  17.8532290  82.2756710  43.3142730  30.0135550
  82.2094020  42.3938400  29.7593140  81.6461850  43.4118170  30.7280190
  76.1787330  43.9148690  21.9718970  76.6966000  43.1116950  21.9175860
  75.7271350  43.8527830  22.8135800  81.0656830  45.1814970  17.2446270
  81.4072530  45.9257200  16.7489590  80.2369540  45.4946090  17.6071100
  73.6631870  40.8810060  28.8844670  73.3046810  41.5463910  29.4718010
  73.3686430  40.0493610  29.2557290  76.8644990  41.3394300  31.7684220
  76.5645130  41.4851480  30.8712040  77.6356230  40.7799590  31.6757610
  82.2073440  46.1363300  29.7639350  82.2217980  45.2044260  29.5458260
  81.4998540  46.2223060  30.4029120  83.9484240  44.5030810  22.6091780
  84.3008060  43.9058940  21.9493150  83.0646570  44.1775040  22.7800030
  80.0347520  45.2628500  20.0162190  80.7218650  45.8097710  20.3969780
  79.2479940  45.8069230  20.0511800  72.1739920  40.8801320  15.5079270
  73.0434770  41.1626120  15.7915190  71.6830240  41.6937190  15.3928080
  79.3374730  42.2674530  19.6287550  79.7937510  43.0779780  19.8547740
  78.9862940  41.9497670  20.4606040  81.6407340  47.7780870  26.8579850
  82.2849560  47.9840250  27.5353270  82.0036780  47.0169270  26.4050700
  75.2386510  32.6112180  20.1010070  75.1101140  32.6030080  21.0494990
  74.4148530  32.9495270  19.7501080  82.9139420  45.7813220  25.5757300
  83.5561650  45.0806380  25.6889470  83.4388770  46.5611660  25.3954190
  72.5411170  50.0928700  16.0740900  72.9008810  50.6918040  15.4198170
  72.4003510  50.6388590  16.8475930  72.2380440  34.3703300  29.5616770
  71.5238960  34.5700220  30.1669380  72.6575480  33.5942870  29.9331570
  72.5253030  48.3583560  30.5483300  72.6344150  47.4178300  30.4078690
  71.8733590  48.6238310  29.8997030  80.5165620  46.6299450  31.9481420
  80.1962490  45.9108690  32.4927110  79.8423980  47.3054520  32.0217480
  78.5579790  47.4759900  16.8914570  78.5489890  48.2089590  16.2759080
  77.6378150  47.2291480  16.9841530  74.1586430  42.6974790  17.6361330
  73.5514380  43.4373690  17.6456630  74.6335780  42.7874150  16.8099530
  83.7319220  36.8625610  27.3118220  84.1000040  36.0420820  27.6397790
  82.8717420  36.9227500  27.7273870  81.5439390  47.5388140  15.5539760
  81.6451370  47.3352130  14.6241740  80.6441130  47.2846420  15.7587540
  79.0665280  38.0968500  19.5363660  78.3581430  38.5654840  19.9777270
  79.3509760  37.4390510  20.1708850  80.6921210  39.5165200  27.5356190
  81.1906460  39.9911020  28.2008040  80.8344160  38.5928720  27.7426220
  83.0980710  34.8219160  20.9759450  82.9748490  34.8405290  20.0268960
  84.0465270  34.8698100  21.0957850  80.1857500  50.0574460  20.2487430
  80.4399000  50.0195850  19.3266800  79.2369980  49.9307790  20.2415680
  77.2700300  36.4053580  16.9114370  78.1190830  36.8423730  16.8454560
  76.9031570  36.7173840  17.7386430  76.1691720  42.6585940  15.3849900
  76.9354990  42.5467300  15.9475330  76.2466410  41.9623910  14.7326670
  74.8638480  40.0911010  16.0682790  74.9442070  39.1438520  16.1800190
  75.7558230  40.4217890  16.1743450  75.6653190  50.2406400  23.1717330
  76.4015670  49.6921860  23.4425900  76.0494110  51.1062410  23.0323320
  72.5498670  46.3079970  19.0458840  71.6238450  46.5501110  19.0364250
  73.0155100  47.1354230  18.9243590  74.6711470  49.4252470  32.3602910
  75.4724200  49.7464520  32.7738310  74.1563290  49.0648050  33.0822820
  78.7755500  49.4136710  14.9942900  79.5684110  49.7025540  14.5424690
  78.2559850  48.9828880  14.3155380  83.5076100  45.5332340  32.3078320
  82.9014260  45.5563940  31.5674070  83.2030210  44.8015380  32.8445570
  72.3909280  41.9125930  31.3038960  72.8948300  41.3333210  31.8755190
  71.6516700  42.1966160  31.8415330  79.2932900  44.6340120  14.8585250
  79.1883540  44.0192470  15.5846630  79.1257120  44.1106010  14.0748260
  79.4447220  43.3196920  30.8374480  78.6792890  43.8881920  30.7529150
  79.6263180  43.0273130  29.9442710  82.5335630  43.6960150  15.4627240
  81.9845730  44.1429450  16.1069980  83.1554890  43.1909400  15.9864910
  74.4232360  40.0555520  32.1989030  74.4637700  39.7569390  33.1074260
  75.2777860  40.4563130  32.0396550  78.2010750  42.6551070  17.3592540
  78.6227170  42.4890940  18.2023930  78.3261590  41.8451300  16.8647680
  76.3638170  38.6347620  30.1663520  75.8334630  38.1438570  29.5386860
  77.0326240  39.0631820  29.6321450  80.7138390  41.6788680  14.6069640
  81.2344050  40.9637700  14.2410790  81.3606790  42.3174550  14.9070150
  76.8510470  35.6009990  30.2460810  76.7567340  34.9830740  29.5211680
  76.2707860  36.3276280  30.0190720  79.6171910  34.1583230  27.2788200
  79.1689210  34.1807490  26.4333750  78.9837110  33.7602250  27.8758500
  80.0231460  43.0537560  27.9000640  80.4419570  43.8970290  27.7276880
  79.1040090  43.1909600  27.6707420  82.3595360  40.7853740  29.2838480
  82.4791570  40.1894880  30.0233320  83.2189360  40.8223430  28.8639780
  77.0969650  38.7284300  14.3050700  76.8958710  37.8651660  14.6664040
  76.9261700  38.6417660  13.3672300  77.8738880  49.3590570  29.0158370
  77.3359970  50.0836630  28.6967070  78.1272840  48.8820910  28.2255710
  79.1264130  37.3275090  30.5414300  79.7163820  37.0190940  31.2292120
  78.3084370  36.8554840  30.6974200  83.9457560  36.9440900  30.7747320
  83.2573080  36.2822440  30.7097310  84.6663580  36.4979170  31.2195780
  75.8952450  35.8284920  14.2928580  76.1978350  35.8352350  13.3847730
  76.6347040  35.4782780  14.7896240  80.7301090  50.5941780  29.2745020
  80.6559790  51.4976920  29.5817390  79.8279930  50.2753680  29.2467090
  79.1137380  34.7719540  15.2784780  78.7659380  34.0943530  14.6987230
  79.3150150  34.3109050  16.0928170  81.2786420  49.7600290  16.8971380
  82.1737210  50.0985260  16.9190140  81.3104050  49.0379700  16.2695660
  74.9182580  45.1327340  15.1258380  75.3557450  45.6757010  15.7815960
  75.4030310  44.3074290  15.1354720  72.1328380  47.9216370  22.5778640
  72.4631390  47.0537430  22.3457280  72.5619380  48.1274890  23.4083600
  76.7290300  46.2525380  20.2380610  76.4285840  46.1290350  21.1384520
  76.6227790  45.3933970  19.8296340  72.6218590  48.7886960  25.3160270
  72.1849580  48.9687760  26.1484420  73.1896270  49.5461580  25.1741990
  72.4543020  41.3007190  21.6749150  71.7991860  41.0318830  21.0308850
  73.2920970  41.1911670  21.2251130  73.4918950  41.6859760  26.2152490
  73.8591990  41.5987160  27.0948510  72.9229770  40.9226310  26.1159350
  73.0434950  38.5968850  30.1210910  72.1491000  38.5635610  30.4604620
  73.5832500  38.7955640  30.8862160  71.6681100  38.5106120  17.6174480
  70.7645180  38.7736320  17.4426140  72.1521720  38.7817290  16.8374440
  74.2108310  37.5671660  15.5268860  74.9200010  37.1454880  15.0416140
  73.4948250  37.6346890  14.8952210  73.8582470  33.6210990  14.5671510
  74.5810600  34.1619930  14.8852730  74.1306990  33.3474410  13.6913050
  73.5474660  32.8717180  24.4694130  74.1950850  32.3214560  24.0289290
  73.9676500  33.1260330  25.2909940  73.3006660  33.0272850  27.2119450
  72.9521480  33.4836670  27.9777630  72.9694360  32.1329980  27.2941880
  74.9071030  46.1992450  31.3772640  74.8640660  45.8285360  32.2587100
  75.0382040  47.1370020  31.5174460  78.6077060  47.7552040  26.9782360
  78.3668420  48.0226600  26.0912880  79.5479700  47.9257770  27.0333220
  80.8131480  34.2184730  30.7338870  80.7520370  34.8106560  31.4834280
  81.7531860  34.1110690  30.5889130  83.4506040  33.8754790  30.3731160
  84.0646450  34.1934080  29.7112240  83.9955600  33.3903380  30.9927020
  73.9727300  32.5549050  30.4870220  74.5210290  32.3737100  29.7236330
  74.0382610  31.7643160  31.0226530  74.7459060  49.1454700  28.4970420
  74.1519380  49.0139400  29.2360460  74.7382900  48.3092840  28.0312520
  84.1914080  32.4386930  26.7000450  83.3173920  32.7722040  26.4973380
  84.0824830  31.9660110  27.5252320  74.3771290  46.5113080  27.4478460
  73.6505350  45.8918370  27.3804410  74.4380440  46.9053690  26.5776540
  77.9816390  48.7258080  24.2327870  78.4981410  48.1145440  23.7076130
  78.6313770  49.2286860  24.7238880  80.7211890  49.6166570  25.0596850
  81.0089700  49.3620870  24.1829860  81.2335110  49.0643930  25.6502420
  81.9388900  33.3556770  25.6393360  81.1560690  33.8302270  25.9190120
  81.6451830  32.4511600  25.5306540  72.6601290  49.8287470  20.6575220
  72.4923330  49.1958150  21.3557110  71.7935800  50.0346870  20.3069410
  73.2829310  33.6604250  18.1607080  74.0408670  33.7733130  17.5871110
  72.8206480  34.4973450  18.1150510  79.8243120  35.7743520  21.1509390
  79.0117630  35.4000410  20.8105270  80.3284760  35.0188600  21.4530580
  74.2663990  48.5220700  18.1025360  73.7411610  48.9028730  17.3987320
  74.1908570  49.1471470  18.8235070  75.6554460  34.1868300  16.7009050
  76.1847220  33.3998100  16.5717000  76.2882780  34.8659490  16.9344580
  77.8492300  33.9243440  19.7554440  77.2195040  33.2230750  19.9224570
  77.3097440  34.6847570  19.5387600  80.7884250  50.5382670  32.4265050
  81.7151560  50.3026940  32.4701010  80.7734680  51.3654670  31.9451080
  77.9747860  33.2027420  32.1906930  77.6932130  33.7061020  31.4267750
  78.3567560  32.4049170  31.8249060  76.8656960  50.4703080  16.9774610
  77.5975780  50.1862360  16.4298500  77.1250630  50.2316360  17.8673990
  76.0271750  46.5867810  16.9820940  75.3980630  47.0552910  17.5306770
  76.1419580  45.7417030  17.4167130  83.4821470  40.6373470   3.1322140
  83.4015520  39.7228080   2.8613850  83.0685890  41.1340540   2.4261850
  81.6139510  42.4152490   5.0131410  80.8381610  41.9352930   5.3029980
  82.2652440  41.7358140   4.8387570  75.6305340  42.7272300   5.8907170
  74.7990220  42.4721010   6.2903680  76.2386320  42.7983070   6.6265090
  75.6106600  46.7612390   6.0865190  75.9134640  45.8710130   5.9075410
  76.3550190  47.3182610   5.8587440  72.0030300  40.2879840   5.5589260
  72.5746410  39.5202040   5.5592900  72.0031840  40.5868600   4.6495870
  81.8610250  49.1070690   3.4134530  81.2421690  49.5628190   2.8428970
  82.7162030  49.2622150   3.0124230  81.0548500  45.0909680   5.0201570
  80.9856780  44.1499620   4.8590700  81.8168360  45.1811090   5.5924140
  73.2455170  35.6964200   7.3458190  73.0658010  34.7989950   7.6260950
  72.8435250  36.2436070   8.0205140  82.0853670  37.8980060   5.2470500
  82.4618490  37.0251940   5.1344170  81.9873180  38.2338760   4.3560940
  73.8641840  38.1924700   5.9540530  74.5451950  38.4563070   6.5727930
  73.5489890  37.3525570   6.2878540  78.0566410  39.2392060   5.0413120
  78.5644630  39.7373030   5.6818140  78.5879650  38.4627260   4.8652480
  76.3402510  33.8790620   9.3076540  76.3420950  34.3963010   8.5022440
  75.5106820  33.4020800   9.2846470  77.5905360  43.5185800   7.4850040
  77.2574740  44.1454720   8.1271110  77.7672040  44.0447680   6.7051710
  76.0217840  35.5900580   7.3146990  76.3634650  36.4342630   7.0200860
  75.0833650  35.7384320   7.4312330  76.8024460  45.4866600   9.2999220
  77.4198460  46.1617680   9.0183670  75.9417580  45.8954580   9.2086720
  79.7045730  33.0782850   3.6391580  80.0120710  32.5229740   2.9227080
  78.7746430  33.2127310   3.4564570  77.6983130  41.6696420   3.1571430
  77.2940130  40.9573670   2.6617330  77.7846250  41.3249660   4.0459470
  78.1664830  45.3563980   5.3210640  77.8693120  44.7509450   4.6418420
  79.1164650  45.3941290   5.2100000  76.4111750  38.4439630   6.9370470
  76.9626340  38.5534970   6.1623720  76.9255260  38.8177230   7.6525700
  77.2583260  45.0945670  11.9718440  76.3611790  45.3185640  12.2191840
  77.2836130  45.2180610  11.0229840  76.0854480  41.9658990  10.5475810
  75.9462250  42.8381790  10.9163210  75.2035840  41.6231800  10.4023750
  82.4083860  46.8834860   1.8540940  82.8479770  47.6259190   1.4396330
  82.3470750  47.1261430   2.7779900  77.8834830  47.9080690  12.7560960
  77.8550260  48.3123640  11.8889390  77.7199800  46.9791050  12.5932560
  72.0373130  43.7356540   6.4646720  72.1153550  43.8705310   5.5202440
  72.6514810  43.0272430   6.6574840  73.2820760  45.4356730   2.8752900
  72.8748840  45.5771320   2.0206500  74.1733770  45.1516890   2.6724110
  83.0999640  49.5848640   9.7819950  83.6144310  49.4956650  10.5842380
  82.2568720  49.9308340  10.0747860  84.3430100  49.0054250   1.8450440
  84.7987050  48.2243630   2.1589060  84.6822620  49.7161070   2.3891620
  72.0932650  44.7770710   9.0041180  72.2563690  44.3076070   8.1860550
  72.5585100  44.2694270   9.6690020  76.8651420  33.9076470   4.0401750
  76.4219570  34.6886010   3.7086270  77.4236410  34.2306360   4.7472690
  81.1521230  36.7744990   9.6437070  80.6900600  36.9828010  10.4557010
  80.7499340  35.9604340   9.3407740  83.2475450  39.4955690  12.8732520
  83.5728860  38.6619440  12.5334750  84.0355780  40.0184210  13.0210850
  78.9027320  34.4523800   5.8991350  79.1999650  35.3586630   5.8183370
  79.4512880  33.9642580   5.2850920  76.6565640  39.0310040   1.7683000
  76.4306560  38.8147210   2.6729620  75.8758170  39.4638500   1.4228970
  79.0964850  39.9295620  12.4343270  79.0008450  38.9890350  12.2843670
  79.9396830  40.1510690  12.0391340  82.4928270  37.6736950   2.3976930
  82.8857840  37.9909150   1.5845620  82.8545120  36.7948830   2.5121450
  74.2275390  36.3409290  10.5877050  73.8338780  37.1884500  10.7949830
  73.5393790  35.7035660  10.7785690  80.8020440  36.4244260  13.6573790
  80.1118760  36.2316460  14.2919880  81.5452740  36.7078900  14.1898090
  71.5292440  34.2637750   4.6207130  71.2405490  34.8340610   5.3332110
  72.2738200  33.7842200   4.9838360  83.0783410  40.2642700   6.4927710
  82.3464530  40.7729510   6.8417810  82.6807750  39.4472680   6.1916490
  79.5160800  36.9396900   4.8980200  79.5196860  36.4986850   4.0484740
  80.4111920  37.2614230   5.0052020  75.3663180  36.8223390   3.8574410
  75.0263230  37.2998620   4.6141460  74.6040500  36.3688510   3.4975510
  83.5409320  35.7176380   5.9050650  83.5582060  36.1685030   6.7492500
  83.2924900  34.8182020   6.1184090  73.6671630  44.1522140  11.1636990
  73.2826420  43.5115810  11.7619950  73.9783820  44.8558260  11.7331720
  79.8168770  40.9998680   6.6445610  80.1838900  40.5257250   7.3906950
  79.6273830  41.8740250   6.9853950  72.6809260  35.7442370   2.7739080
  72.3956180  35.3798040   3.6117700  72.6188120  35.0122830   2.1602220
  77.6068140  40.0407320   8.9629820  77.3025210  40.9199300   9.1880180
  78.5614600  40.1007110   8.9987260  82.2756710  43.3142730  11.2392060
  82.2094020  42.3938400  10.9849650  81.6461850  43.4118170  11.9536700
  76.1787330  43.9148690   3.1975480  76.6966000  43.1116950   3.1432370
  75.7271350  43.8527830   4.0392310  73.6631870  40.8810060  10.1101180
  73.3046810  41.5463910  10.6974520  73.3686430  40.0493610  10.4813800
  76.8644990  41.3394300  12.9940730  76.5645130  41.4851480  12.0968550
  77.6356230  40.7799590  12.9014120  82.2073440  46.1363300  10.9895860
  82.2217980  45.2044260  10.7714770  81.4998540  46.2223060  11.6285630
  83.9484240  44.5030810   3.8348290  84.3008060  43.9058940   3.1749660
  83.0646570  44.1775040   4.0056540  81.6407340  47.7780870   8.0836360
  82.2849560  47.9840250   8.7609780  82.0036780  47.0169270   7.6307210
  82.9139420  45.7813220   6.8013810  83.5561650  45.0806380   6.9145980
  83.4388770  46.5611660   6.6210700  72.2380440  34.3703300  10.7873280
  71.5238960  34.5700220  11.3925890  72.6575480  33.5942870  11.1588080
  72.5253030  48.3583560  11.7739810  72.6344150  47.4178300  11.6335200
  71.8733590  48.6238310  11.1253540  80.5165620  46.6299450  13.1737930
  80.1962490  45.9108690  13.7183620  79.8423980  47.3054520  13.2473990
  83.7319220  36.8625610   8.5374730  84.1000040  36.0420820   8.8654300
  82.8717420  36.9227500   8.9530380  80.6921210  39.5165200   8.7612700
  81.1906460  39.9911020   9.4264550  80.8344160  38.5928720   8.9682730
  75.6653190  50.2406400   4.3973840  76.4015670  49.6921860   4.6682410
  76.0494110  51.1062410   4.2579830  74.6711470  49.4252470  13.5859420
  75.4724200  49.7464520  13.9994820  74.1563290  49.0648050  14.3079330
  83.5076100  45.5332340  13.5334830  82.9014260  45.5563940  12.7930580
  83.2030210  44.8015380  14.0702080  72.3909280  41.9125930  12.5295470
  72.8948300  41.3333210  13.1011700  71.6516700  42.1966160  13.0671840
  79.4447220  43.3196920  12.0630990  78.6792890  43.8881920  11.9785660
  79.6263180  43.0273130  11.1699220  74.4232360  40.0555520  13.4245540
  74.4637700  39.7569390  14.3330770  75.2777860  40.4563130  13.2653060
  76.3638170  38.6347620  11.3920030  75.8334630  38.1438570  10.7643370
  77.0326240  39.0631820  10.8577960  76.8510470  35.6009990  11.4717320
  76.7567340  34.9830740  10.7468190  76.2707860  36.3276280  11.2447230
  79.6171910  34.1583230   8.5044710  79.1689210  34.1807490   7.6590260
  78.9837110  33.7602250   9.1015010  80.0231460  43.0537560   9.1257150
  80.4419570  43.8970290   8.9533390  79.1040090  43.1909600   8.8963930
  82.3595360  40.7853740  10.5094990  82.4791570  40.1894880  11.2489830
  83.2189360  40.8223430  10.0896290  77.8738880  49.3590570  10.2414880
  77.3359970  50.0836630   9.9223580  78.1272840  48.8820910   9.4512220
  79.1264130  37.3275090  11.7670810  79.7163820  37.0190940  12.4548630
  78.3084370  36.8554840  11.9230710  83.9457560  36.9440900  12.0003830
  83.2573080  36.2822440  11.9353820  84.6663580  36.4979170  12.4452290
  80.7301090  50.5941780  10.5001530  80.6559790  51.4976920  10.8073900
  79.8279930  50.2753680  10.4723600  72.1328380  47.9216370   3.8035150
  72.4631390  47.0537430   3.5713790  72.5619380  48.1274890   4.6340110
  72.6218590  48.7886960   6.5416780  72.1849580  48.9687760   7.3740930
  73.1896270  49.5461580   6.3998500  72.4543020  41.3007190   2.9005660
  71.7991860  41.0318830   2.2565360  73.2920970  41.1911670   2.4507640
  73.4918950  41.6859760   7.4409000  73.8591990  41.5987160   8.3205020
  72.9229770  40.9226310   7.3415860  73.0434950  38.5968850  11.3467420
  72.1491000  38.5635610  11.6861130  73.5832500  38.7955640  12.1118670
  73.5474660  32.8717180   5.6950640  74.1950850  32.3214560   5.2545800
  73.9676500  33.1260330   6.5166450  73.3006660  33.0272850   8.4375960
  72.9521480  33.4836670   9.2034140  72.9694360  32.1329980   8.5198390
  74.9071030  46.1992450  12.6029150  74.8640660  45.8285360  13.4843610
  75.0382040  47.1370020  12.7430970  78.6077060  47.7552040   8.2038870
  78.3668420  48.0226600   7.3169390  79.5479700  47.9257770   8.2589730
  80.8131480  34.2184730  11.9595380  80.7520370  34.8106560  12.7090790
  81.7531860  34.1110690  11.8145640  83.4506040  33.8754790  11.5987670
  84.0646450  34.1934080  10.9368750  83.9955600  33.3903380  12.2183530
  73.9727300  32.5549050  11.7126730  74.5210290  32.3737100  10.9492840
  74.0382610  31.7643160  12.2483040  74.7459060  49.1454700   9.7226930
  74.1519380  49.0139400  10.4616970  74.7382900  48.3092840   9.2569030
  84.1914080  32.4386930   7.9256960  83.3173920  32.7722040   7.7229890
  84.0824830  31.9660110   8.7508830  74.3771290  46.5113080   8.6734970
  73.6505350  45.8918370   8.6060920  74.4380440  46.9053690   7.8033050
  77.9816390  48.7258080   5.4584380  78.4981410  48.1145440   4.9332640
  78.6313770  49.2286860   5.9495390  80.7211890  49.6166570   6.2853360
  81.0089700  49.3620870   5.4086370  81.2335110  49.0643930   6.8758930
  81.9388900  33.3556770   6.8649870  81.1560690  33.8302270   7.1446630
  81.6451830  32.4511600   6.7563050  72.6601290  49.8287470   1.8831730
  72.4923330  49.1958150   2.5813620  71.7935800  50.0346870   1.5325920
  79.8243120  35.7743520   2.3765900  79.0117630  35.4000410   2.0361780
  80.3284760  35.0188600   2.6787090  80.7884250  50.5382670  13.6521560
  81.7151560  50.3026940  13.6957520  80.7734680  51.3654670  13.1707590
  77.9747860  33.2027420  13.4163440  77.6932130  33.7061020  12.6524260
  78.3567560  32.4049170  13.0505570  83.4821470  21.8629980  78.2296100
  83.4015520  20.9484590  77.9587810  83.0685890  22.3597050  77.5235810
  81.6139510  23.6409000  80.1105370  80.8381610  23.1609440  80.4003940
  82.2652440  22.9614650  79.9361530  75.6305340  23.9528810  80.9881130
  74.7990220  23.6977520  81.3877640  76.2386320  24.0239580  81.7239050
  75.6106600  27.9868900  81.1839150  75.9134640  27.0966640  81.0049370
  76.3550190  28.5439120  80.9561400  74.0397290  18.9130700  74.7723520
  73.1513990  19.2546670  74.6703400  74.3238480  18.7131020  73.8804350
  72.0030300  21.5136350  80.6563220  72.5746410  20.7458550  80.6566860
  72.0031840  21.8125110  79.7469830  81.8610250  30.3327200  78.5108490
  81.2421690  30.7884700  77.9402930  82.7162030  30.4878660  78.1098190
  81.0548500  26.3166190  80.1175530  80.9856780  25.3756130  79.9564660
  81.8168360  26.4067600  80.6898100  73.2455170  16.9220710  82.4432150
  73.0658010  16.0246460  82.7234910  72.8435250  17.4692580  83.1179100
  82.0853670  19.1236570  80.3444460  82.4618490  18.2508450  80.2318130
  81.9873180  19.4595270  79.4534900  76.2158680  17.4962200  75.8061900
  76.3225430  18.3965930  76.1130660  75.3051040  17.4480170  75.5156550
  73.8641840  19.4181210  81.0514490  74.5451950  19.6819580  81.6701890
  73.5489890  18.5782080  81.3852500  78.0566410  20.4648570  80.1387080
  78.5644630  20.9629540  80.7792100  78.5879650  19.6883770  79.9626440
  82.7273600  25.2166440  75.9040400  82.1090870  25.6815890  75.3403120
  83.2396850  25.9093920  76.3209910  77.5905360  24.7442310  82.5824000
  77.2574740  25.3711230  83.2245070  77.7672040  25.2704190  81.8025670
  76.0217840  16.8157090  82.4120950  76.3634650  17.6599140  82.1174820
  75.0833650  16.9640830  82.5286290  72.0956800  25.9022970  73.2780030
  71.7184780  26.3910070  72.5464930  72.3529870  26.5748250  73.9086560
  79.7045730  14.3039360  78.7365540  80.0120710  13.7486250  78.0201040
  78.7746430  14.4383820  78.5538530  82.0926490  22.3688190  75.4725660
  81.1655770  22.3025570  75.7014130  82.2451310  23.3068320  75.3580900
  82.0795570  18.6405190  72.4692820  81.1399240  18.8019150  72.5545280
  82.3978830  19.3590870  71.9228810  77.6983130  22.8952930  78.2545390
  77.2940130  22.1830180  77.7591290  77.7846250  22.5506170  79.1433430
  78.1664830  26.5820490  80.4184600  77.8693120  25.9765960  79.7392380
  79.1164650  26.6197800  80.3073960  76.4111750  19.6696140  82.0344430
  76.9626340  19.7791480  81.2597680  76.9255260  20.0433740  82.7499660
  82.4083860  28.1091370  76.9514900  82.8479770  28.8515700  76.5370290
  82.3470750  28.3517940  77.8753860  74.3987760  21.7897910  75.7552040
  74.2785360  22.5160000  75.1433310  74.0888650  21.0200820  75.2779950
  72.0373130  24.9613050  81.5620680  72.1153550  25.0961820  80.6176400
  72.6514810  24.2528940  81.7548800  73.2820760  26.6613240  77.9726860
  72.8748840  26.8027830  77.1180460  74.1733770  26.3773400  77.7698070
  77.5542420  30.8759020  76.0849530  77.3784900  29.9594560  75.8717330
  76.6998160  31.2346310  76.3247330  84.3430100  30.2310760  76.9424400
  84.7987050  29.4500140  77.2563020  84.6822620  30.9417580  77.4865580
  76.8651420  15.1332980  79.1375710  76.4219570  15.9142520  78.8060230
  77.4236410  15.4562870  79.8446650  79.9810240  14.7543680  74.0181540
  79.3564420  14.7503550  74.7434850  79.8940360  13.8874640  73.6217510
  78.9027320  15.6780310  80.9965310  79.1999650  16.5843140  80.9157330
  79.4512880  15.1899090  80.3824880  76.6565640  20.2566550  76.8656960
  76.4306560  20.0403720  77.7703580  75.8758170  20.6895010  76.5202930
  83.8863400  20.2629920  75.4647610  83.2872290  20.9865720  75.2811230
  84.4343010  20.2006700  74.6824060  82.4928270  18.8993460  77.4950890
  82.8857840  19.2165660  76.6819580  82.8545120  18.0205340  77.6095410
  71.5292440  15.4894260  79.7181090  71.2405490  16.0597120  80.4306070
  72.2738200  15.0098710  80.0812320  71.7162670  19.4314380  70.9283810
  71.6337340  20.3745140  71.0698800  71.3645730  19.2889290  70.0496160
  83.0783410  21.4899210  81.5901670  82.3464530  21.9986020  81.9391770
  82.6807750  20.6729190  81.2890450  79.5160800  18.1653410  79.9954160
  79.5196860  17.7243360  79.1458700  80.4111920  18.4870740  80.1025980
  75.3663180  18.0479900  78.9548370  75.0263230  18.5255130  79.7115420
  74.6040500  17.5945020  78.5949470  79.5780950  19.1665490  72.9860920
  79.6993770  19.1251970  73.9346740  79.1929460  20.0289640  72.8307650
  83.5409320  16.9432890  81.0024610  83.5582060  17.3941540  81.8466460
  83.2924900  16.0438530  81.2158050  78.5902450  21.4766630  72.3844220
  78.0219350  21.0284880  71.7580130  79.2991450  21.8359410  71.8509370
  79.8168770  22.2255190  81.7419570  80.1838900  21.7513760  82.4880910
  79.6273830  23.0996760  82.0827910  72.6809260  16.9698880  77.8713040
  72.3956180  16.6054550  78.7091660  72.6188120  16.2379340  77.2576180
  76.1349930  25.4724820  74.6570630  75.3612190  24.9322440  74.4969350
  76.8644560  24.9531430  74.3188390  82.3547850  15.8628140  74.5926410
  81.5412460  15.3641310  74.5171720  82.1609800  16.7026390  74.1762760
  76.1787330  25.1405200  78.2949440  76.6966000  24.3373460  78.2406330
  75.7271350  25.0784340  79.1366270  81.0656830  26.4071480  73.5676740
  81.4072530  27.1513710  73.0720060  80.2369540  26.7202600  73.9301570
  83.9484240  25.7287320  78.9322250  84.3008060  25.1315450  78.2723620
  83.0646570  25.4031550  79.1030500  80.0347520  26.4885010  76.3392660
  80.7218650  27.0354220  76.7200250  79.2479940  27.0325740  76.3742270
  72.1739920  22.1057830  71.8309740  73.0434770  22.3882630  72.1145660
  71.6830240  22.9193700  71.7158550  79.3374730  23.4931040  75.9518020
  79.7937510  24.3036290  76.1778210  78.9862940  23.1754180  76.7836510
  75.2386510  13.8368690  76.4240540  75.1101140  13.8286590  77.3725460
  74.4148530  14.1751780  76.0731550  82.9139420  27.0069730  81.8987770
  83.5561650  26.3062890  82.0119940  83.4388770  27.7868170  81.7184660
  72.5411170  31.3185210  72.3971370  72.9008810  31.9174550  71.7428640
  72.4003510  31.8645100  73.1706400  78.5579790  28.7016410  73.2145040
  78.5489890  29.4346100  72.5989550  77.6378150  28.4547990  73.3072000
  74.1586430  23.9231300  73.9591800  73.5514380  24.6630200  73.9687100
  74.6335780  24.0130660  73.1330000  81.5439390  28.7644650  71.8770230
  81.6451370  28.5608640  70.9472210  80.6441130  28.5102930  72.0818010
  79.0665280  19.3225010  75.8594130  78.3581430  19.7911350  76.3007740
  79.3509760  18.6647020  76.4939320  83.0980710  16.0475670  77.2989920
  82.9748490  16.0661800  76.3499430  84.0465270  16.0954610  77.4188320
  80.1857500  31.2830970  76.5717900  80.4399000  31.2452360  75.6497270
  79.2369980  31.1564300  76.5646150  77.2700300  17.6310090  73.2344840
  78.1190830  18.0680240  73.1685030  76.9031570  17.9430350  74.0616900
  76.1691720  23.8842450  71.7080370  76.9354990  23.7723810  72.2705800
  76.2466410  23.1880420  71.0557140  74.8638480  21.3167520  72.3913260
  74.9442070  20.3695030  72.5030660  75.7558230  21.6474400  72.4973920
  75.6653190  31.4662910  79.4947800  76.4015670  30.9178370  79.7656370
  76.0494110  32.3318920  79.3553790  72.5498670  27.5336480  75.3689310
  71.6238450  27.7757620  75.3594720  73.0155100  28.3610740  75.2474060
  78.7755500  30.6393220  71.3173370  79.5684110  30.9282050  70.8655160
  78.2559850  30.2085390  70.6385850  79.2932900  25.8596630  71.1815720
  79.1883540  25.2448980  71.9077100  79.1257120  25.3362520  70.3978730
  82.5335630  24.9216660  71.7857710  81.9845730  25.3685960  72.4300450
  83.1554890  24.4165910  72.3095380  78.2010750  23.8807580  73.6823010
  78.6227170  23.7147450  74.5254400  78.3261590  23.0707810  73.1878150
  80.7138390  22.9045190  70.9300110  81.2344050  22.1894210  70.5641260
  81.3606790  23.5431060  71.2300620  77.0969650  19.9540810  70.6281170
  76.8958710  19.0908170  70.9894510  76.9261700  19.8674170  69.6902770
  75.8952450  17.0541430  70.6159050  76.1978350  17.0608860  69.7078200
  76.6347040  16.7039290  71.1126710  79.1137380  15.9976050  71.6015250
  78.7659380  15.3200040  71.0217700  79.3150150  15.5365560  72.4158640
  81.2786420  30.9856800  73.2201850  82.1737210  31.3241770  73.2420610
  81.3104050  30.2636210  72.5926130  74.9182580  26.3583850  71.4488850
  75.3557450  26.9013520  72.1046430  75.4030310  25.5330800  71.4585190
  72.1328380  29.1472880  78.9009110  72.4631390  28.2793940  78.6687750
  72.5619380  29.3531400  79.7314070  76.7290300  27.4781890  76.5611080
  76.4285840  27.3546860  77.4614990  76.6227790  26.6190480  76.1526810
  72.6218590  30.0143470  81.6390740  72.1849580  30.1944270  82.4714890
  73.1896270  30.7718090  81.4972460  72.4543020  22.5263700  77.9979620
  71.7991860  22.2575340  77.3539320  73.2920970  22.4168180  77.5481600
  71.6681100  19.7362630  73.9404950  70.7645180  19.9992830  73.7656610
  72.1521720  20.0073800  73.1604910  74.2108310  18.7928170  71.8499330
  74.9200010  18.3711390  71.3646610  73.4948250  18.8603400  71.2182680
  73.8582470  14.8467500  70.8901980  74.5810600  15.3876440  71.2083200
  74.1306990  14.5730920  70.0143520  73.5474660  14.0973690  80.7924600
  74.1950850  13.5471070  80.3519760  73.9676500  14.3516840  81.6140410
  77.9816390  29.9514590  80.5558340  78.4981410  29.3401950  80.0306600
  78.6313770  30.4543370  81.0469350  80.7211890  30.8423080  81.3827320
  81.0089700  30.5877380  80.5060330  81.2335110  30.2900440  81.9732890
  81.9388900  14.5813280  81.9623830  81.1560690  15.0558780  82.2420590
  81.6451830  13.6768110  81.8537010  72.6601290  31.0543980  76.9805690
  72.4923330  30.4214660  77.6787580  71.7935800  31.2603380  76.6299880
  73.2829310  14.8860760  74.4837550  74.0408670  14.9989640  73.9101580
  72.8206480  15.7229960  74.4380980  79.8243120  17.0000030  77.4739860
  79.0117630  16.6256920  77.1335740  80.3284760  16.2445110  77.7761050
  74.2663990  29.7477210  74.4255830  73.7411610  30.1285240  73.7217790
  74.1908570  30.3727980  75.1465540  75.6554460  15.4124810  73.0239520
  76.1847220  14.6254610  72.8947470  76.2882780  16.0916000  73.2575050
  77.8492300  15.1499950  76.0784910  77.2195040  14.4487260  76.2455040
  77.3097440  15.9104080  75.8618070  76.8656960  31.6959590  73.3005080
  77.5975780  31.4118870  72.7528970  77.1250630  31.4572870  74.1904460
  76.0271750  27.8124320  73.3051410  75.3980630  28.2809420  73.8537240
  76.1419580  26.9673540  73.7397600  83.4821470  21.8629980  59.4552610
  83.4015520  20.9484590  59.1844320  83.0685890  22.3597050  58.7492320
  81.6139510  23.6409000  61.3361880  80.8381610  23.1609440  61.6260450
  82.2652440  22.9614650  61.1618040  75.6305340  23.9528810  62.2137640
  74.7990220  23.6977520  62.6134150  76.2386320  24.0239580  62.9495560
  75.6106600  27.9868900  62.4095660  75.9134640  27.0966640  62.2305880
  76.3550190  28.5439120  62.1817910  74.0397290  18.9130700  55.9980030
  73.1513990  19.2546670  55.8959910  74.3238480  18.7131020  55.1060860
  72.0030300  21.5136350  61.8819730  72.5746410  20.7458550  61.8823370
  72.0031840  21.8125110  60.9726340  81.8610250  30.3327200  59.7365000
  81.2421690  30.7884700  59.1659440  82.7162030  30.4878660  59.3354700
  81.0548500  26.3166190  61.3432040  80.9856780  25.3756130  61.1821170
  81.8168360  26.4067600  61.9154610  73.2455170  16.9220710  63.6688660
  73.0658010  16.0246460  63.9491420  72.8435250  17.4692580  64.3435610
  82.0853670  19.1236570  61.5700970  82.4618490  18.2508450  61.4574640
  81.9873180  19.4595270  60.6791410  76.2158680  17.4962200  57.0318410
  76.3225430  18.3965930  57.3387170  75.3051040  17.4480170  56.7413060
  73.8641840  19.4181210  62.2771000  74.5451950  19.6819580  62.8958400
  73.5489890  18.5782080  62.6109010  78.0566410  20.4648570  61.3643590
  78.5644630  20.9629540  62.0048610  78.5879650  19.6883770  61.1882950
  76.3402510  15.1047130  65.6307010  76.3420950  15.6219520  64.8252910
  75.5106820  14.6277310  65.6076940  82.7273600  25.2166440  57.1296910
  82.1090870  25.6815890  56.5659630  83.2396850  25.9093920  57.5466420
  77.5905360  24.7442310  63.8080510  77.2574740  25.3711230  64.4501580
  77.7672040  25.2704190  63.0282180  76.0217840  16.8157090  63.6377460
  76.3634650  17.6599140  63.3431330  75.0833650  16.9640830  63.7542800
  76.8024460  26.7123110  65.6229690  77.4198460  27.3874190  65.3414140
  75.9417580  27.1211090  65.5317190  72.0956800  25.9022970  54.5036540
  71.7184780  26.3910070  53.7721440  72.3529870  26.5748250  55.1343070
  79.7045730  14.3039360  59.9622050  80.0120710  13.7486250  59.2457550
  78.7746430  14.4383820  59.7795040  82.0926490  22.3688190  56.6982170
  81.1655770  22.3025570  56.9270640  82.2451310  23.3068320  56.5837410
  82.0795570  18.6405190  53.6949330  81.1399240  18.8019150  53.7801790
  82.3978830  19.3590870  53.1485320  77.6983130  22.8952930  59.4801900
  77.2940130  22.1830180  58.9847800  77.7846250  22.5506170  60.3689940
  78.1664830  26.5820490  61.6441110  77.8693120  25.9765960  60.9648890
  79.1164650  26.6197800  61.5330470  76.4111750  19.6696140  63.2600940
  76.9626340  19.7791480  62.4854190  76.9255260  20.0433740  63.9756170
  77.2583260  26.3202180  68.2948910  76.3611790  26.5442150  68.5422310
  77.2836130  26.4437120  67.3460310  76.0854480  23.1915500  66.8706280
  75.9462250  24.0638300  67.2393680  75.2035840  22.8488310  66.7254220
  82.4083860  28.1091370  58.1771410  82.8479770  28.8515700  57.7626800
  82.3470750  28.3517940  59.1010370  77.8834830  29.1337200  69.0791430
  77.8550260  29.5380150  68.2119860  77.7199800  28.2047560  68.9163030
  74.3987760  21.7897910  56.9808550  74.2785360  22.5160000  56.3689820
  74.0888650  21.0200820  56.5036460  72.0373130  24.9613050  62.7877190
  72.1153550  25.0961820  61.8432910  72.6514810  24.2528940  62.9805310
  73.2820760  26.6613240  59.1983370  72.8748840  26.8027830  58.3436970
  74.1733770  26.3773400  58.9954580  83.0999640  30.8105150  66.1050420
  83.6144310  30.7213160  66.9072850  82.2568720  31.1564850  66.3978330
  77.5542420  30.8759020  57.3106040  77.3784900  29.9594560  57.0973840
  76.6998160  31.2346310  57.5503840  84.3430100  30.2310760  58.1680910
  84.7987050  29.4500140  58.4819530  84.6822620  30.9417580  58.7122090
  72.0932650  26.0027220  65.3271650  72.2563690  25.5332580  64.5091020
  72.5585100  25.4950780  65.9920490  76.8651420  15.1332980  60.3632220
  76.4219570  15.9142520  60.0316740  77.4236410  15.4562870  61.0703160
  81.1521230  18.0001500  65.9667540  80.6900600  18.2084520  66.7787480
  80.7499340  17.1860850  65.6638210  83.2475450  20.7212200  69.1962990
  83.5728860  19.8875950  68.8565220  84.0355780  21.2440720  69.3441320
  79.9810240  14.7543680  55.2438050  79.3564420  14.7503550  55.9691360
  79.8940360  13.8874640  54.8474020  78.9027320  15.6780310  62.2221820
  79.1999650  16.5843140  62.1413840  79.4512880  15.1899090  61.6081390
  76.6565640  20.2566550  58.0913470  76.4306560  20.0403720  58.9960090
  75.8758170  20.6895010  57.7459440  83.8863400  20.2629920  56.6904120
  83.2872290  20.9865720  56.5067740  84.4343010  20.2006700  55.9080570
  79.0964850  21.1552130  68.7573740  79.0008450  20.2146860  68.6074140
  79.9396830  21.3767200  68.3621810  82.4928270  18.8993460  58.7207400
  82.8857840  19.2165660  57.9076090  82.8545120  18.0205340  58.8351920
  74.2275390  17.5665800  66.9107520  73.8338780  18.4141010  67.1180300
  73.5393790  16.9292170  67.1016160  80.8020440  17.6500770  69.9804260
  80.1118760  17.4572970  70.6150350  81.5452740  17.9335410  70.5128560
  71.5292440  15.4894260  60.9437600  71.2405490  16.0597120  61.6562580
  72.2738200  15.0098710  61.3068830  71.7162670  19.4314380  52.1540320
  71.6337340  20.3745140  52.2955310  71.3645730  19.2889290  51.2752670
  83.0783410  21.4899210  62.8158180  82.3464530  21.9986020  63.1648280
  82.6807750  20.6729190  62.5146960  79.5160800  18.1653410  61.2210670
  79.5196860  17.7243360  60.3715210  80.4111920  18.4870740  61.3282490
  75.3663180  18.0479900  60.1804880  75.0263230  18.5255130  60.9371930
  74.6040500  17.5945020  59.8205980  79.5780950  19.1665490  54.2117430
  79.6993770  19.1251970  55.1603250  79.1929460  20.0289640  54.0564160
  83.5409320  16.9432890  62.2281120  83.5582060  17.3941540  63.0722970
  83.2924900  16.0438530  62.4414560  78.5902450  21.4766630  53.6100730
  78.0219350  21.0284880  52.9836640  79.2991450  21.8359410  53.0765880
  73.6671630  25.3778650  67.4867460  73.2826420  24.7372320  68.0850420
  73.9783820  26.0814770  68.0562190  79.8168770  22.2255190  62.9676080
  80.1838900  21.7513760  63.7137420  79.6273830  23.0996760  63.3084420
  72.6809260  16.9698880  59.0969550  72.3956180  16.6054550  59.9348170
  72.6188120  16.2379340  58.4832690  77.6068140  21.2663830  65.2860290
  77.3025210  22.1455810  65.5110650  78.5614600  21.3263620  65.3217730
  76.1349930  25.4724820  55.8827140  75.3612190  24.9322440  55.7225860
  76.8644560  24.9531430  55.5444900  82.3547850  15.8628140  55.8182920
  81.5412460  15.3641310  55.7428230  82.1609800  16.7026390  55.4019270
  82.2756710  24.5399240  67.5622530  82.2094020  23.6194910  67.3080120
  81.6461850  24.6374680  68.2767170  76.1787330  25.1405200  59.5205950
  76.6966000  24.3373460  59.4662840  75.7271350  25.0784340  60.3622780
  81.0656830  26.4071480  54.7933250  81.4072530  27.1513710  54.2976570
  80.2369540  26.7202600  55.1558080  73.6631870  22.1066570  66.4331650
  73.3046810  22.7720420  67.0204990  73.3686430  21.2750120  66.8044270
  76.8644990  22.5650810  69.3171200  76.5645130  22.7107990  68.4199020
  77.6356230  22.0056100  69.2244590  82.2073440  27.3619810  67.3126330
  82.2217980  26.4300770  67.0945240  81.4998540  27.4479570  67.9516100
  83.9484240  25.7287320  60.1578760  84.3008060  25.1315450  59.4980130
  83.0646570  25.4031550  60.3287010  80.0347520  26.4885010  57.5649170
  80.7218650  27.0354220  57.9456760  79.2479940  27.0325740  57.5998780
  72.1739920  22.1057830  53.0566250  73.0434770  22.3882630  53.3402170
  71.6830240  22.9193700  52.9415060  79.3374730  23.4931040  57.1774530
  79.7937510  24.3036290  57.4034720  78.9862940  23.1754180  58.0093020
  81.6407340  29.0037380  64.4066830  82.2849560  29.2096760  65.0840250
  82.0036780  28.2425780  63.9537680  75.2386510  13.8368690  57.6497050
  75.1101140  13.8286590  58.5981970  74.4148530  14.1751780  57.2988060
  82.9139420  27.0069730  63.1244280  83.5561650  26.3062890  63.2376450
  83.4388770  27.7868170  62.9441170  72.5411170  31.3185210  53.6227880
  72.9008810  31.9174550  52.9685150  72.4003510  31.8645100  54.3962910
  72.2380440  15.5959810  67.1103750  71.5238960  15.7956730  67.7156360
  72.6575480  14.8199380  67.4818550  72.5253030  29.5840070  68.0970280
  72.6344150  28.6434810  67.9565670  71.8733590  29.8494820  67.4484010
  80.5165620  27.8555960  69.4968400  80.1962490  27.1365200  70.0414090
  79.8423980  28.5311030  69.5704460  78.5579790  28.7016410  54.4401550
  78.5489890  29.4346100  53.8246060  77.6378150  28.4547990  54.5328510
  74.1586430  23.9231300  55.1848310  73.5514380  24.6630200  55.1943610
  74.6335780  24.0130660  54.3586510  83.7319220  18.0882120  64.8605200
  84.1000040  17.2677330  65.1884770  82.8717420  18.1484010  65.2760850
  81.5439390  28.7644650  53.1026740  81.6451370  28.5608640  52.1728720
  80.6441130  28.5102930  53.3074520  79.0665280  19.3225010  57.0850640
  78.3581430  19.7911350  57.5264250  79.3509760  18.6647020  57.7195830
  80.6921210  20.7421710  65.0843170  81.1906460  21.2167530  65.7495020
  80.8344160  19.8185230  65.2913200  83.0980710  16.0475670  58.5246430
  82.9748490  16.0661800  57.5755940  84.0465270  16.0954610  58.6444830
  80.1857500  31.2830970  57.7974410  80.4399000  31.2452360  56.8753780
  79.2369980  31.1564300  57.7902660  77.2700300  17.6310090  54.4601350
  78.1190830  18.0680240  54.3941540  76.9031570  17.9430350  55.2873410
  76.1691720  23.8842450  52.9336880  76.9354990  23.7723810  53.4962310
  76.2466410  23.1880420  52.2813650  74.8638480  21.3167520  53.6169770
  74.9442070  20.3695030  53.7287170  75.7558230  21.6474400  53.7230430
  75.6653190  31.4662910  60.7204310  76.4015670  30.9178370  60.9912880
  76.0494110  32.3318920  60.5810300  72.5498670  27.5336480  56.5945820
  71.6238450  27.7757620  56.5851230  73.0155100  28.3610740  56.4730570
  74.6711470  30.6508980  69.9089890  75.4724200  30.9721030  70.3225290
  74.1563290  30.2904560  70.6309800  78.7755500  30.6393220  52.5429880
  79.5684110  30.9282050  52.0911670  78.2559850  30.2085390  51.8642360
  83.5076100  26.7588850  69.8565300  82.9014260  26.7820450  69.1161050
  83.2030210  26.0271890  70.3932550  72.3909280  23.1382440  68.8525940
  72.8948300  22.5589720  69.4242170  71.6516700  23.4222670  69.3902310
  79.2932900  25.8596630  52.4072230  79.1883540  25.2448980  53.1333610
  79.1257120  25.3362520  51.6235240  79.4447220  24.5453430  68.3861460
  78.6792890  25.1138430  68.3016130  79.6263180  24.2529640  67.4929690
  82.5335630  24.9216660  53.0114220  81.9845730  25.3685960  53.6556960
  83.1554890  24.4165910  53.5351890  74.4232360  21.2812030  69.7476010
  74.4637700  20.9825900  70.6561240  75.2777860  21.6819640  69.5883530
  78.2010750  23.8807580  54.9079520  78.6227170  23.7147450  55.7510910
  78.3261590  23.0707810  54.4134660  76.3638170  19.8604130  67.7150500
  75.8334630  19.3695080  67.0873840  77.0326240  20.2888330  67.1808430
  80.7138390  22.9045190  52.1556620  81.2344050  22.1894210  51.7897770
  81.3606790  23.5431060  52.4557130  76.8510470  16.8266500  67.7947790
  76.7567340  16.2087250  67.0698660  76.2707860  17.5532790  67.5677700
  79.6171910  15.3839740  64.8275180  79.1689210  15.4064000  63.9820730
  78.9837110  14.9858760  65.4245480  80.0231460  24.2794070  65.4487620
  80.4419570  25.1226800  65.2763860  79.1040090  24.4166110  65.2194400
  82.3595360  22.0110250  66.8325460  82.4791570  21.4151390  67.5720300
  83.2189360  22.0479940  66.4126760  77.0969650  19.9540810  51.8537680
  76.8958710  19.0908170  52.2151020  76.9261700  19.8674170  50.9159280
  77.8738880  30.5847080  66.5645350  77.3359970  31.3093140  66.2454050
  78.1272840  30.1077420  65.7742690  79.1264130  18.5531600  68.0901280
  79.7163820  18.2447450  68.7779100  78.3084370  18.0811350  68.2461180
  83.9457560  18.1697410  68.3234300  83.2573080  17.5078950  68.2584290
  84.6663580  17.7235680  68.7682760  75.8952450  17.0541430  51.8415560
  76.1978350  17.0608860  50.9334710  76.6347040  16.7039290  52.3383220
  80.7301090  31.8198290  66.8232000  80.6559790  32.7233430  67.1304370
  79.8279930  31.5010190  66.7954070  79.1137380  15.9976050  52.8271760
  78.7659380  15.3200040  52.2474210  79.3150150  15.5365560  53.6415150
  81.2786420  30.9856800  54.4458360  82.1737210  31.3241770  54.4677120
  81.3104050  30.2636210  53.8182640  74.9182580  26.3583850  52.6745360
  75.3557450  26.9013520  53.3302940  75.4030310  25.5330800  52.6841700
  72.1328380  29.1472880  60.1265620  72.4631390  28.2793940  59.8944260
  72.5619380  29.3531400  60.9570580  76.7290300  27.4781890  57.7867590
  76.4285840  27.3546860  58.6871500  76.6227790  26.6190480  57.3783320
  72.6218590  30.0143470  62.8647250  72.1849580  30.1944270  63.6971400
  73.1896270  30.7718090  62.7228970  72.4543020  22.5263700  59.2236130
  71.7991860  22.2575340  58.5795830  73.2920970  22.4168180  58.7738110
  73.4918950  22.9116270  63.7639470  73.8591990  22.8243670  64.6435490
  72.9229770  22.1482820  63.6646330  73.0434950  19.8225360  67.6697890
  72.1491000  19.7892120  68.0091600  73.5832500  20.0212150  68.4349140
  71.6681100  19.7362630  55.1661460  70.7645180  19.9992830  54.9913120
  72.1521720  20.0073800  54.3861420  74.2108310  18.7928170  53.0755840
  74.9200010  18.3711390  52.5903120  73.4948250  18.8603400  52.4439190
  73.8582470  14.8467500  52.1158490  74.5810600  15.3876440  52.4339710
  74.1306990  14.5730920  51.2400030  73.5474660  14.0973690  62.0181110
  74.1950850  13.5471070  61.5776270  73.9676500  14.3516840  62.8396920
  73.3006660  14.2529360  64.7606430  72.9521480  14.7093180  65.5264610
  72.9694360  13.3586490  64.8428860  74.9071030  27.4248960  68.9259620
  74.8640660  27.0541870  69.8074080  75.0382040  28.3626530  69.0661440
  78.6077060  28.9808550  64.5269340  78.3668420  29.2483110  63.6399860
  79.5479700  29.1514280  64.5820200  80.8131480  15.4441240  68.2825850
  80.7520370  16.0363070  69.0321260  81.7531860  15.3367200  68.1376110
  83.4506040  15.1011300  67.9218140  84.0646450  15.4190590  67.2599220
  83.9955600  14.6159890  68.5414000  73.9727300  13.7805560  68.0357200
  74.5210290  13.5993610  67.2723310  74.0382610  12.9899670  68.5713510
  74.7459060  30.3711210  66.0457400  74.1519380  30.2395910  66.7847440
  74.7382900  29.5349350  65.5799500  84.1914080  13.6643440  64.2487430
  83.3173920  13.9978550  64.0460360  84.0824830  13.1916620  65.0739300
  74.3771290  27.7369590  64.9965440  73.6505350  27.1174880  64.9291390
  74.4380440  28.1310200  64.1263520  77.9816390  29.9514590  61.7814850
  78.4981410  29.3401950  61.2563110  78.6313770  30.4543370  62.2725860
  80.7211890  30.8423080  62.6083830  81.0089700  30.5877380  61.7316840
  81.2335110  30.2900440  63.1989400  81.9388900  14.5813280  63.1880340
  81.1560690  15.0558780  63.4677100  81.6451830  13.6768110  63.0793520
  72.6601290  31.0543980  58.2062200  72.4923330  30.4214660  58.9044090
  71.7935800  31.2603380  57.8556390  73.2829310  14.8860760  55.7094060
  74.0408670  14.9989640  55.1358090  72.8206480  15.7229960  55.6637490
  79.8243120  17.0000030  58.6996370  79.0117630  16.6256920  58.3592250
  80.3284760  16.2445110  59.0017560  74.2663990  29.7477210  55.6512340
  73.7411610  30.1285240  54.9474300  74.1908570  30.3727980  56.3722050
  75.6554460  15.4124810  54.2496030  76.1847220  14.6254610  54.1203980
  76.2882780  16.0916000  54.4831560  77.8492300  15.1499950  57.3041420
  77.2195040  14.4487260  57.4711550  77.3097440  15.9104080  57.0874580
  80.7884250  31.7639180  69.9752030  81.7151560  31.5283450  70.0187990
  80.7734680  32.5911180  69.4938060  77.9747860  14.4283930  69.7393910
  77.6932130  14.9317530  68.9754730  78.3567560  13.6305680  69.3736040
  76.8656960  31.6959590  54.5261590  77.5975780  31.4118870  53.9785480
  77.1250630  31.4572870  55.4160970  76.0271750  27.8124320  54.5307920
  75.3980630  28.2809420  55.0793750  76.1419580  26.9673540  54.9654110
  83.4821470  21.8629980  40.6809120  83.4015520  20.9484590  40.4100830
  83.0685890  22.3597050  39.9748830  81.6139510  23.6409000  42.5618390
  80.8381610  23.1609440  42.8516960  82.2652440  22.9614650  42.3874550
  75.6305340  23.9528810  43.4394150  74.7990220  23.6977520  43.8390660
  76.2386320  24.0239580  44.1752070  75.6106600  27.9868900  43.6352170
  75.9134640  27.0966640  43.4562390  76.3550190  28.5439120  43.4074420
  74.0397290  18.9130700  37.2236540  73.1513990  19.2546670  37.1216420
  74.3238480  18.7131020  36.3317370  72.0030300  21.5136350  43.1076240
  72.5746410  20.7458550  43.1079880  72.0031840  21.8125110  42.1982850
  81.8610250  30.3327200  40.9621510  81.2421690  30.7884700  40.3915950
  82.7162030  30.4878660  40.5611210  81.0548500  26.3166190  42.5688550
  80.9856780  25.3756130  42.4077680  81.8168360  26.4067600  43.1411120
  73.2455170  16.9220710  44.8945170  73.0658010  16.0246460  45.1747930
  72.8435250  17.4692580  45.5692120  82.0853670  19.1236570  42.7957480
  82.4618490  18.2508450  42.6831150  81.9873180  19.4595270  41.9047920
  76.2158680  17.4962200  38.2574920  76.3225430  18.3965930  38.5643680
  75.3051040  17.4480170  37.9669570  73.8641840  19.4181210  43.5027510
  74.5451950  19.6819580  44.1214910  73.5489890  18.5782080  43.8365520
  78.0566410  20.4648570  42.5900100  78.5644630  20.9629540  43.2305120
  78.5879650  19.6883770  42.4139460  76.3402510  15.1047130  46.8563520
  76.3420950  15.6219520  46.0509420  75.5106820  14.6277310  46.8333450
  82.7273600  25.2166440  38.3553420  82.1090870  25.6815890  37.7916140
  83.2396850  25.9093920  38.7722930  77.5905360  24.7442310  45.0337020
  77.2574740  25.3711230  45.6758090  77.7672040  25.2704190  44.2538690
  76.0217840  16.8157090  44.8633970  76.3634650  17.6599140  44.5687840
  75.0833650  16.9640830  44.9799310  76.8024460  26.7123110  46.8486200
  77.4198460  27.3874190  46.5670650  75.9417580  27.1211090  46.7573700
  72.0956800  25.9022970  35.7293050  71.7184780  26.3910070  34.9977950
  72.3529870  26.5748250  36.3599580  79.7045730  14.3039360  41.1878560
  80.0120710  13.7486250  40.4714060  78.7746430  14.4383820  41.0051550
  82.0926490  22.3688190  37.9238680  81.1655770  22.3025570  38.1527150
  82.2451310  23.3068320  37.8093920  82.0795570  18.6405190  34.9205840
  81.1399240  18.8019150  35.0058300  82.3978830  19.3590870  34.3741830
  77.6983130  22.8952930  40.7058410  77.2940130  22.1830180  40.2104310
  77.7846250  22.5506170  41.5946450  78.1664830  26.5820490  42.8697620
  77.8693120  25.9765960  42.1905400  79.1164650  26.6197800  42.7586980
  76.4111750  19.6696140  44.4857450  76.9626340  19.7791480  43.7110700
  76.9255260  20.0433740  45.2012680  77.2583260  26.3202180  49.5205420
  76.3611790  26.5442150  49.7678820  77.2836130  26.4437120  48.5716820
  76.0854480  23.1915500  48.0962790  75.9462250  24.0638300  48.4650190
  75.2035840  22.8488310  47.9510730  82.4083860  28.1091370  39.4027920
  82.8479770  28.8515700  38.9883310  82.3470750  28.3517940  40.3266880
  77.8834830  29.1337200  50.3047940  77.8550260  29.5380150  49.4376370
  77.7199800  28.2047560  50.1419540  74.3987760  21.7897910  38.2065060
  74.2785360  22.5160000  37.5946330  74.0888650  21.0200820  37.7292970
  72.0373130  24.9613050  44.0133700  72.1153550  25.0961820  43.0689420
  72.6514810  24.2528940  44.2061820  73.2820760  26.6613240  40.4239880
  72.8748840  26.8027830  39.5693480  74.1733770  26.3773400  40.2211090
  83.0999640  30.8105150  47.3306930  83.6144310  30.7213160  48.1329360
  82.2568720  31.1564850  47.6234840  77.5542420  30.8759020  38.5362550
  77.3784900  29.9594560  38.3230350  76.6998160  31.2346310  38.7760350
  84.3430100  30.2310760  39.3937420  84.7987050  29.4500140  39.7076040
  84.6822620  30.9417580  39.9378600  72.0932650  26.0027220  46.5528160
  72.2563690  25.5332580  45.7347530  72.5585100  25.4950780  47.2177000
  76.8651420  15.1332980  41.5888730  76.4219570  15.9142520  41.2573250
  77.4236410  15.4562870  42.2959670  81.1521230  18.0001500  47.1924050
  80.6900600  18.2084520  48.0043990  80.7499340  17.1860850  46.8894720
  83.2475450  20.7212200  50.4219500  83.5728860  19.8875950  50.0821730
  84.0355780  21.2440720  50.5697830  79.9810240  14.7543680  36.4694560
  79.3564420  14.7503550  37.1947870  79.8940360  13.8874640  36.0730530
  78.9027320  15.6780310  43.4478330  79.1999650  16.5843140  43.3670350
  79.4512880  15.1899090  42.8337900  76.6565640  20.2566550  39.3169980
  76.4306560  20.0403720  40.2216600  75.8758170  20.6895010  38.9715950
  83.8863400  20.2629920  37.9160630  83.2872290  20.9865720  37.7324250
  84.4343010  20.2006700  37.1337080  79.0964850  21.1552130  49.9830250
  79.0008450  20.2146860  49.8330650  79.9396830  21.3767200  49.5878320
  82.4928270  18.8993460  39.9463910  82.8857840  19.2165660  39.1332600
  82.8545120  18.0205340  40.0608430  74.2275390  17.5665800  48.1364030
  73.8338780  18.4141010  48.3436810  73.5393790  16.9292170  48.3272670
  80.8020440  17.6500770  51.2060770  80.1118760  17.4572970  51.8406860
  81.5452740  17.9335410  51.7385070  71.5292440  15.4894260  42.1694110
  71.2405490  16.0597120  42.8819090  72.2738200  15.0098710  42.5325340
  71.7162670  19.4314380  33.3796830  71.6337340  20.3745140  33.5211820
  71.3645730  19.2889290  32.5009180  83.0783410  21.4899210  44.0414690
  82.3464530  21.9986020  44.3904790  82.6807750  20.6729190  43.7403470
  79.5160800  18.1653410  42.4467180  79.5196860  17.7243360  41.5971720
  80.4111920  18.4870740  42.5539000  75.3663180  18.0479900  41.4061390
  75.0263230  18.5255130  42.1628440  74.6040500  17.5945020  41.0462490
  79.5780950  19.1665490  35.4373940  79.6993770  19.1251970  36.3859760
  79.1929460  20.0289640  35.2820670  83.5409320  16.9432890  43.4537630
  83.5582060  17.3941540  44.2979480  83.2924900  16.0438530  43.6671070
  78.5902450  21.4766630  34.8357240  78.0219350  21.0284880  34.2093150
  79.2991450  21.8359410  34.3022390  73.6671630  25.3778650  48.7123970
  73.2826420  24.7372320  49.3106930  73.9783820  26.0814770  49.2818700
  79.8168770  22.2255190  44.1932590  80.1838900  21.7513760  44.9393930
  79.6273830  23.0996760  44.5340930  72.6809260  16.9698880  40.3226060
  72.3956180  16.6054550  41.1604680  72.6188120  16.2379340  39.7089200
  77.6068140  21.2663830  46.5116800  77.3025210  22.1455810  46.7367160
  78.5614600  21.3263620  46.5474240  76.1349930  25.4724820  37.1083650
  75.3612190  24.9322440  36.9482370  76.8644560  24.9531430  36.7701410
  82.3547850  15.8628140  37.0439430  81.5412460  15.3641310  36.9684740
  82.1609800  16.7026390  36.6275780  82.2756710  24.5399240  48.7879040
  82.2094020  23.6194910  48.5336630  81.6461850  24.6374680  49.5023680
  76.1787330  25.1405200  40.7462460  76.6966000  24.3373460  40.6919350
  75.7271350  25.0784340  41.5879290  81.0656830  26.4071480  36.0189760
  81.4072530  27.1513710  35.5233080  80.2369540  26.7202600  36.3814590
  73.6631870  22.1066570  47.6588160  73.3046810  22.7720420  48.2461500
  73.3686430  21.2750120  48.0300780  76.8644990  22.5650810  50.5427710
  76.5645130  22.7107990  49.6455530  77.6356230  22.0056100  50.4501100
  82.2073440  27.3619810  48.5382840  82.2217980  26.4300770  48.3201750
  81.4998540  27.4479570  49.1772610  83.9484240  25.7287320  41.3835270
  84.3008060  25.1315450  40.7236640  83.0646570  25.4031550  41.5543520
  80.0347520  26.4885010  38.7905680  80.7218650  27.0354220  39.1713270
  79.2479940  27.0325740  38.8255290  72.1739920  22.1057830  34.2822760
  73.0434770  22.3882630  34.5658680  71.6830240  22.9193700  34.1671570
  79.3374730  23.4931040  38.4031040  79.7937510  24.3036290  38.6291230
  78.9862940  23.1754180  39.2349530  81.6407340  29.0037380  45.6323340
  82.2849560  29.2096760  46.3096760  82.0036780  28.2425780  45.1794190
  75.2386510  13.8368690  38.8753560  75.1101140  13.8286590  39.8238480
  74.4148530  14.1751780  38.5244570  82.9139420  27.0069730  44.3500790
  83.5561650  26.3062890  44.4632960  83.4388770  27.7868170  44.1697680
  72.5411170  31.3185210  34.8484390  72.9008810  31.9174550  34.1941660
  72.4003510  31.8645100  35.6219420  72.2380440  15.5959810  48.3360260
  71.5238960  15.7956730  48.9412870  72.6575480  14.8199380  48.7075060
  72.5253030  29.5840070  49.3226790  72.6344150  28.6434810  49.1822180
  71.8733590  29.8494820  48.6740520  80.5165620  27.8555960  50.7224910
  80.1962490  27.1365200  51.2670600  79.8423980  28.5311030  50.7960970
  78.5579790  28.7016410  35.6658060  78.5489890  29.4346100  35.0502570
  77.6378150  28.4547990  35.7585020  74.1586430  23.9231300  36.4104820
  73.5514380  24.6630200  36.4200120  74.6335780  24.0130660  35.5843020
  83.7319220  18.0882120  46.0861710  84.1000040  17.2677330  46.4141280
  82.8717420  18.1484010  46.5017360  81.5439390  28.7644650  34.3283250
  81.6451370  28.5608640  33.3985230  80.6441130  28.5102930  34.5331030
  79.0665280  19.3225010  38.3107150  78.3581430  19.7911350  38.7520760
  79.3509760  18.6647020  38.9452340  80.6921210  20.7421710  46.3099680
  81.1906460  21.2167530  46.9751530  80.8344160  19.8185230  46.5169710
  83.0980710  16.0475670  39.7502940  82.9748490  16.0661800  38.8012450
  84.0465270  16.0954610  39.8701340  80.1857500  31.2830970  39.0230920
  80.4399000  31.2452360  38.1010290  79.2369980  31.1564300  39.0159170
  77.2700300  17.6310090  35.6857860  78.1190830  18.0680240  35.6198050
  76.9031570  17.9430350  36.5129920  76.1691720  23.8842450  34.1593390
  76.9354990  23.7723810  34.7218820  76.2466410  23.1880420  33.5070160
  74.8638480  21.3167520  34.8426280  74.9442070  20.3695030  34.9543680
  75.7558230  21.6474400  34.9486940  75.6653190  31.4662910  41.9460820
  76.4015670  30.9178370  42.2169390  76.0494110  32.3318920  41.8066810
  72.5498670  27.5336480  37.8202330  71.6238450  27.7757620  37.8107740
  73.0155100  28.3610740  37.6987080  74.6711470  30.6508980  51.1346400
  75.4724200  30.9721030  51.5481800  74.1563290  30.2904560  51.8566310
  78.7755500  30.6393220  33.7686390  79.5684110  30.9282050  33.3168180
  78.2559850  30.2085390  33.0898870  83.5076100  26.7588850  51.0821810
  82.9014260  26.7820450  50.3417560  83.2030210  26.0271890  51.6189060
  72.3909280  23.1382440  50.0782450  72.8948300  22.5589720  50.6498680
  71.6516700  23.4222670  50.6158820  79.2932900  25.8596630  33.6328740
  79.1883540  25.2448980  34.3590120  79.1257120  25.3362520  32.8491750
  79.4447220  24.5453430  49.6117970  78.6792890  25.1138430  49.5272640
  79.6263180  24.2529640  48.7186200  82.5335630  24.9216660  34.2370730
  81.9845730  25.3685960  34.8813470  83.1554890  24.4165910  34.7608400
  74.4232360  21.2812030  50.9732520  74.4637700  20.9825900  51.8817750
  75.2777860  21.6819640  50.8140040  78.2010750  23.8807580  36.1336030
  78.6227170  23.7147450  36.9767420  78.3261590  23.0707810  35.6391170
  76.3638170  19.8604130  48.9407010  75.8334630  19.3695080  48.3130350
  77.0326240  20.2888330  48.4064940  80.7138390  22.9045190  33.3813130
  81.2344050  22.1894210  33.0154280  81.3606790  23.5431060  33.6813640
  76.8510470  16.8266500  49.0204300  76.7567340  16.2087250  48.2955170
  76.2707860  17.5532790  48.7934210  79.6171910  15.3839740  46.0531690
  79.1689210  15.4064000  45.2077240  78.9837110  14.9858760  46.6501990
  80.0231460  24.2794070  46.6744130  80.4419570  25.1226800  46.5020370
  79.1040090  24.4166110  46.4450910  82.3595360  22.0110250  48.0581970
  82.4791570  21.4151390  48.7976810  83.2189360  22.0479940  47.6383270
  77.0969650  19.9540810  33.0794190  76.8958710  19.0908170  33.4407530
  76.9261700  19.8674170  32.1415790  77.8738880  30.5847080  47.7901860
  77.3359970  31.3093140  47.4710560  78.1272840  30.1077420  46.9999200
  79.1264130  18.5531600  49.3157790  79.7163820  18.2447450  50.0035610
  78.3084370  18.0811350  49.4717690  83.9457560  18.1697410  49.5490810
  83.2573080  17.5078950  49.4840800  84.6663580  17.7235680  49.9939270
  75.8952450  17.0541430  33.0672070  76.1978350  17.0608860  32.1591220
  76.6347040  16.7039290  33.5639730  80.7301090  31.8198290  48.0488510
  80.6559790  32.7233430  48.3560880  79.8279930  31.5010190  48.0210580
  79.1137380  15.9976050  34.0528270  78.7659380  15.3200040  33.4730720
  79.3150150  15.5365560  34.8671660  81.2786420  30.9856800  35.6714870
  82.1737210  31.3241770  35.6933630  81.3104050  30.2636210  35.0439150
  74.9182580  26.3583850  33.9001870  75.3557450  26.9013520  34.5559450
  75.4030310  25.5330800  33.9098210  72.1328380  29.1472880  41.3522130
  72.4631390  28.2793940  41.1200770  72.5619380  29.3531400  42.1827090
  76.7290300  27.4781890  39.0124100  76.4285840  27.3546860  39.9128010
  76.6227790  26.6190480  38.6039830  72.6218590  30.0143470  44.0903760
  72.1849580  30.1944270  44.9227910  73.1896270  30.7718090  43.9485480
  72.4543020  22.5263700  40.4492640  71.7991860  22.2575340  39.8052340
  73.2920970  22.4168180  39.9994620  73.4918950  22.9116270  44.9895980
  73.8591990  22.8243670  45.8692000  72.9229770  22.1482820  44.8902840
  73.0434950  19.8225360  48.8954400  72.1491000  19.7892120  49.2348110
  73.5832500  20.0212150  49.6605650  71.6681100  19.7362630  36.3917970
  70.7645180  19.9992830  36.2169630  72.1521720  20.0073800  35.6117930
  74.2108310  18.7928170  34.3012350  74.9200010  18.3711390  33.8159630
  73.4948250  18.8603400  33.6695700  73.8582470  14.8467500  33.3415000
  74.5810600  15.3876440  33.6596220  74.1306990  14.5730920  32.4656540
  73.5474660  14.0973690  43.2437620  74.1950850  13.5471070  42.8032780
  73.9676500  14.3516840  44.0653430  73.3006660  14.2529360  45.9862940
  72.9521480  14.7093180  46.7521120  72.9694360  13.3586490  46.0685370
  74.9071030  27.4248960  50.1516130  74.8640660  27.0541870  51.0330590
  75.0382040  28.3626530  50.2917950  78.6077060  28.9808550  45.7525850
  78.3668420  29.2483110  44.8656370  79.5479700  29.1514280  45.8076710
  80.8131480  15.4441240  49.5082360  80.7520370  16.0363070  50.2577770
  81.7531860  15.3367200  49.3632620  83.4506040  15.1011300  49.1474650
  84.0646450  15.4190590  48.4855730  83.9955600  14.6159890  49.7670510
  73.9727300  13.7805560  49.2613710  74.5210290  13.5993610  48.4979820
  74.0382610  12.9899670  49.7970020  74.7459060  30.3711210  47.2713910
  74.1519380  30.2395910  48.0103950  74.7382900  29.5349350  46.8056010
  84.1914080  13.6643440  45.4743940  83.3173920  13.9978550  45.2716870
  84.0824830  13.1916620  46.2995810  74.3771290  27.7369590  46.2221950
  73.6505350  27.1174880  46.1547900  74.4380440  28.1310200  45.3520030
  77.9816390  29.9514590  43.0071360  78.4981410  29.3401950  42.4819620
  78.6313770  30.4543370  43.4982370  80.7211890  30.8423080  43.8340340
  81.0089700  30.5877380  42.9573350  81.2335110  30.2900440  44.4245910
  81.9388900  14.5813280  44.4136850  81.1560690  15.0558780  44.6933610
  81.6451830  13.6768110  44.3050030  72.6601290  31.0543980  39.4318710
  72.4923330  30.4214660  40.1300600  71.7935800  31.2603380  39.0812900
  73.2829310  14.8860760  36.9350570  74.0408670  14.9989640  36.3614600
  72.8206480  15.7229960  36.8894000  79.8243120  17.0000030  39.9252880
  79.0117630  16.6256920  39.5848760  80.3284760  16.2445110  40.2274070
  74.2663990  29.7477210  36.8768850  73.7411610  30.1285240  36.1730810
  74.1908570  30.3727980  37.5978560  75.6554460  15.4124810  35.4752540
  76.1847220  14.6254610  35.3460490  76.2882780  16.0916000  35.7088070
  77.8492300  15.1499950  38.5297930  77.2195040  14.4487260  38.6968060
  77.3097440  15.9104080  38.3131090  80.7884250  31.7639180  51.2008540
  81.7151560  31.5283450  51.2444500  80.7734680  32.5911180  50.7194570
  77.9747860  14.4283930  50.9650420  77.6932130  14.9317530  50.2011240
  78.3567560  13.6305680  50.5992550  76.8656960  31.6959590  35.7518100
  77.5975780  31.4118870  35.2041990  77.1250630  31.4572870  36.6417480
  76.0271750  27.8124320  35.7564430  75.3980630  28.2809420  36.3050260
  76.1419580  26.9673540  36.1910620  83.4821470  21.8629980  21.9065630
  83.4015520  20.9484590  21.6357340  83.0685890  22.3597050  21.2005340
  81.6139510  23.6409000  23.7874900  80.8381610  23.1609440  24.0773470
  82.2652440  22.9614650  23.6131060  75.6305340  23.9528810  24.6650660
  74.7990220  23.6977520  25.0647170  76.2386320  24.0239580  25.4008580
  75.6106600  27.9868900  24.8608680  75.9134640  27.0966640  24.6818900
  76.3550190  28.5439120  24.6330930  74.0397290  18.9130700  18.4493050
  73.1513990  19.2546670  18.3472930  74.3238480  18.7131020  17.5573880
  72.0030300  21.5136350  24.3332750  72.5746410  20.7458550  24.3336390
  72.0031840  21.8125110  23.4239360  81.8610250  30.3327200  22.1878020
  81.2421690  30.7884700  21.6172460  82.7162030  30.4878660  21.7867720
  81.0548500  26.3166190  23.7945060  80.9856780  25.3756130  23.6334190
  81.8168360  26.4067600  24.3667630  73.2455170  16.9220710  26.1201680
  73.0658010  16.0246460  26.4004440  72.8435250  17.4692580  26.7948630
  82.0853670  19.1236570  24.0213990  82.4618490  18.2508450  23.9087660
  81.9873180  19.4595270  23.1304430  76.2158680  17.4962200  19.4831430
  76.3225430  18.3965930  19.7900190  75.3051040  17.4480170  19.1926080
  73.8641840  19.4181210  24.7284020  74.5451950  19.6819580  25.3471420
  73.5489890  18.5782080  25.0622030  78.0566410  20.4648570  23.8156610
  78.5644630  20.9629540  24.4561630  78.5879650  19.6883770  23.6395970
  76.3402510  15.1047130  28.0820030  76.3420950  15.6219520  27.2765930
  75.5106820  14.6277310  28.0589960  82.7273600  25.2166440  19.5809930
  82.1090870  25.6815890  19.0172650  83.2396850  25.9093920  19.9979440
  77.5905360  24.7442310  26.2593530  77.2574740  25.3711230  26.9014600
  77.7672040  25.2704190  25.4795200  76.0217840  16.8157090  26.0890480
  76.3634650  17.6599140  25.7944350  75.0833650  16.9640830  26.2055820
  76.8024460  26.7123110  28.0742710  77.4198460  27.3874190  27.7927160
  75.9417580  27.1211090  27.9830210  72.0956800  25.9022970  16.9549560
  71.7184780  26.3910070  16.2234460  72.3529870  26.5748250  17.5856090
  79.7045730  14.3039360  22.4135070  80.0120710  13.7486250  21.6970570
  78.7746430  14.4383820  22.2308060  82.0926490  22.3688190  19.1495190
  81.1655770  22.3025570  19.3783660  82.2451310  23.3068320  19.0350430
  82.0795570  18.6405190  16.1462350  81.1399240  18.8019150  16.2314810
  82.3978830  19.3590870  15.5998340  77.6983130  22.8952930  21.9314920
  77.2940130  22.1830180  21.4360820  77.7846250  22.5506170  22.8202960
  78.1664830  26.5820490  24.0954130  77.8693120  25.9765960  23.4161910
  79.1164650  26.6197800  23.9843490  76.4111750  19.6696140  25.7113960
  76.9626340  19.7791480  24.9367210  76.9255260  20.0433740  26.4269190
  77.2583260  26.3202180  30.7461930  76.3611790  26.5442150  30.9935330
  77.2836130  26.4437120  29.7973330  76.0854480  23.1915500  29.3219300
  75.9462250  24.0638300  29.6906700  75.2035840  22.8488310  29.1767240
  82.4083860  28.1091370  20.6284430  82.8479770  28.8515700  20.2139820
  82.3470750  28.3517940  21.5523390  77.8834830  29.1337200  31.5304450
  77.8550260  29.5380150  30.6632880  77.7199800  28.2047560  31.3676050
  74.3987760  21.7897910  19.4321570  74.2785360  22.5160000  18.8202840
  74.0888650  21.0200820  18.9549480  72.0373130  24.9613050  25.2390210
  72.1153550  25.0961820  24.2945930  72.6514810  24.2528940  25.4318330
  73.2820760  26.6613240  21.6496390  72.8748840  26.8027830  20.7949990
  74.1733770  26.3773400  21.4467600  83.0999640  30.8105150  28.5563440
  83.6144310  30.7213160  29.3585870  82.2568720  31.1564850  28.8491350
  77.5542420  30.8759020  19.7619060  77.3784900  29.9594560  19.5486860
  76.6998160  31.2346310  20.0016860  84.3430100  30.2310760  20.6193930
  84.7987050  29.4500140  20.9332550  84.6822620  30.9417580  21.1635110
  72.0932650  26.0027220  27.7784670  72.2563690  25.5332580  26.9604040
  72.5585100  25.4950780  28.4433510  76.8651420  15.1332980  22.8145240
  76.4219570  15.9142520  22.4829760  77.4236410  15.4562870  23.5216180
  81.1521230  18.0001500  28.4180560  80.6900600  18.2084520  29.2300500
  80.7499340  17.1860850  28.1151230  83.2475450  20.7212200  31.6476010
  83.5728860  19.8875950  31.3078240  84.0355780  21.2440720  31.7954340
  79.9810240  14.7543680  17.6951070  79.3564420  14.7503550  18.4204380
  79.8940360  13.8874640  17.2987040  78.9027320  15.6780310  24.6734840
  79.1999650  16.5843140  24.5926860  79.4512880  15.1899090  24.0594410
  76.6565640  20.2566550  20.5426490  76.4306560  20.0403720  21.4473110
  75.8758170  20.6895010  20.1972460  83.8863400  20.2629920  19.1417140
  83.2872290  20.9865720  18.9580760  84.4343010  20.2006700  18.3593590
  79.0964850  21.1552130  31.2086760  79.0008450  20.2146860  31.0587160
  79.9396830  21.3767200  30.8134830  82.4928270  18.8993460  21.1720420
  82.8857840  19.2165660  20.3589110  82.8545120  18.0205340  21.2864940
  74.2275390  17.5665800  29.3620540  73.8338780  18.4141010  29.5693320
  73.5393790  16.9292170  29.5529180  80.8020440  17.6500770  32.4317280
  80.1118760  17.4572970  33.0663370  81.5452740  17.9335410  32.9641580
  71.5292440  15.4894260  23.3950620  71.2405490  16.0597120  24.1075600
  72.2738200  15.0098710  23.7581850  71.7162670  19.4314380  14.6053340
  71.6337340  20.3745140  14.7468330  71.3645730  19.2889290  13.7265690
  83.0783410  21.4899210  25.2671200  82.3464530  21.9986020  25.6161300
  82.6807750  20.6729190  24.9659980  79.5160800  18.1653410  23.6723690
  79.5196860  17.7243360  22.8228230  80.4111920  18.4870740  23.7795510
  75.3663180  18.0479900  22.6317900  75.0263230  18.5255130  23.3884950
  74.6040500  17.5945020  22.2719000  79.5780950  19.1665490  16.6630450
  79.6993770  19.1251970  17.6116270  79.1929460  20.0289640  16.5077180
  83.5409320  16.9432890  24.6794140  83.5582060  17.3941540  25.5235990
  83.2924900  16.0438530  24.8927580  78.5902450  21.4766630  16.0613750
  78.0219350  21.0284880  15.4349660  79.2991450  21.8359410  15.5278900
  73.6671630  25.3778650  29.9380480  73.2826420  24.7372320  30.5363440
  73.9783820  26.0814770  30.5075210  79.8168770  22.2255190  25.4189100
  80.1838900  21.7513760  26.1650440  79.6273830  23.0996760  25.7597440
  72.6809260  16.9698880  21.5482570  72.3956180  16.6054550  22.3861190
  72.6188120  16.2379340  20.9345710  77.6068140  21.2663830  27.7373310
  77.3025210  22.1455810  27.9623670  78.5614600  21.3263620  27.7730750
  76.1349930  25.4724820  18.3340160  75.3612190  24.9322440  18.1738880
  76.8644560  24.9531430  17.9957920  82.3547850  15.8628140  18.2695940
  81.5412460  15.3641310  18.1941250  82.1609800  16.7026390  17.8532290
  82.2756710  24.5399240  30.0135550  82.2094020  23.6194910  29.7593140
  81.6461850  24.6374680  30.7280190  76.1787330  25.1405200  21.9718970
  76.6966000  24.3373460  21.9175860  75.7271350  25.0784340  22.8135800
  81.0656830  26.4071480  17.2446270  81.4072530  27.1513710  16.7489590
  80.2369540  26.7202600  17.6071100  73.6631870  22.1066570  28.8844670
  73.3046810  22.7720420  29.4718010  73.3686430  21.2750120  29.2557290
  76.8644990  22.5650810  31.7684220  76.5645130  22.7107990  30.8712040
  77.6356230  22.0056100  31.6757610  82.2073440  27.3619810  29.7639350
  82.2217980  26.4300770  29.5458260  81.4998540  27.4479570  30.4029120
  83.9484240  25.7287320  22.6091780  84.3008060  25.1315450  21.9493150
  83.0646570  25.4031550  22.7800030  80.0347520  26.4885010  20.0162190
  80.7218650  27.0354220  20.3969780  79.2479940  27.0325740  20.0511800
  72.1739920  22.1057830  15.5079270  73.0434770  22.3882630  15.7915190
  71.6830240  22.9193700  15.3928080  79.3374730  23.4931040  19.6287550
  79.7937510  24.3036290  19.8547740  78.9862940  23.1754180  20.4606040
  81.6407340  29.0037380  26.8579850  82.2849560  29.2096760  27.5353270
  82.0036780  28.2425780  26.4050700  75.2386510  13.8368690  20.1010070
  75.1101140  13.8286590  21.0494990  74.4148530  14.1751780  19.7501080
  82.9139420  27.0069730  25.5757300  83.5561650  26.3062890  25.6889470
  83.4388770  27.7868170  25.3954190  72.5411170  31.3185210  16.0740900
  72.9008810  31.9174550  15.4198170  72.4003510  31.8645100  16.8475930
  72.2380440  15.5959810  29.5616770  71.5238960  15.7956730  30.1669380
  72.6575480  14.8199380  29.9331570  72.5253030  29.5840070  30.5483300
  72.6344150  28.6434810  30.4078690  71.8733590  29.8494820  29.8997030
  80.5165620  27.8555960  31.9481420  80.1962490  27.1365200  32.4927110
  79.8423980  28.5311030  32.0217480  78.5579790  28.7016410  16.8914570
  78.5489890  29.4346100  16.2759080  77.6378150  28.4547990  16.9841530
  74.1586430  23.9231300  17.6361330  73.5514380  24.6630200  17.6456630
  74.6335780  24.0130660  16.8099530  83.7319220  18.0882120  27.3118220
  84.1000040  17.2677330  27.6397790  82.8717420  18.1484010  27.7273870
  81.5439390  28.7644650  15.5539760  81.6451370  28.5608640  14.6241740
  80.6441130  28.5102930  15.7587540  79.0665280  19.3225010  19.5363660
  78.3581430  19.7911350  19.9777270  79.3509760  18.6647020  20.1708850
  80.6921210  20.7421710  27.5356190  81.1906460  21.2167530  28.2008040
  80.8344160  19.8185230  27.7426220  83.0980710  16.0475670  20.9759450
  82.9748490  16.0661800  20.0268960  84.0465270  16.0954610  21.0957850
  80.1857500  31.2830970  20.2487430  80.4399000  31.2452360  19.3266800
  79.2369980  31.1564300  20.2415680  77.2700300  17.6310090  16.9114370
  78.1190830  18.0680240  16.8454560  76.9031570  17.9430350  17.7386430
  76.1691720  23.8842450  15.3849900  76.9354990  23.7723810  15.9475330
  76.2466410  23.1880420  14.7326670  74.8638480  21.3167520  16.0682790
  74.9442070  20.3695030  16.1800190  75.7558230  21.6474400  16.1743450
  75.6653190  31.4662910  23.1717330  76.4015670  30.9178370  23.4425900
  76.0494110  32.3318920  23.0323320  72.5498670  27.5336480  19.0458840
  71.6238450  27.7757620  19.0364250  73.0155100  28.3610740  18.9243590
  74.6711470  30.6508980  32.3602910  75.4724200  30.9721030  32.7738310
  74.1563290  30.2904560  33.0822820  78.7755500  30.6393220  14.9942900
  79.5684110  30.9282050  14.5424690  78.2559850  30.2085390  14.3155380
  83.5076100  26.7588850  32.3078320  82.9014260  26.7820450  31.5674070
  83.2030210  26.0271890  32.8445570  72.3909280  23.1382440  31.3038960
  72.8948300  22.5589720  31.8755190  71.6516700  23.4222670  31.8415330
  79.2932900  25.8596630  14.8585250  79.1883540  25.2448980  15.5846630
  79.1257120  25.3362520  14.0748260  79.4447220  24.5453430  30.8374480
  78.6792890  25.1138430  30.7529150  79.6263180  24.2529640  29.9442710
  82.5335630  24.9216660  15.4627240  81.9845730  25.3685960  16.1069980
  83.1554890  24.4165910  15.9864910  74.4232360  21.2812030  32.1989030
  74.4637700  20.9825900  33.1074260  75.2777860  21.6819640  32.0396550
  78.2010750  23.8807580  17.3592540  78.6227170  23.7147450  18.2023930
  78.3261590  23.0707810  16.8647680  76.3638170  19.8604130  30.1663520
  75.8334630  19.3695080  29.5386860  77.0326240  20.2888330  29.6321450
  80.7138390  22.9045190  14.6069640  81.2344050  22.1894210  14.2410790
  81.3606790  23.5431060  14.9070150  76.8510470  16.8266500  30.2460810
  76.7567340  16.2087250  29.5211680  76.2707860  17.5532790  30.0190720
  79.6171910  15.3839740  27.2788200  79.1689210  15.4064000  26.4333750
  78.9837110  14.9858760  27.8758500  80.0231460  24.2794070  27.9000640
  80.4419570  25.1226800  27.7276880  79.1040090  24.4166110  27.6707420
  82.3595360  22.0110250  29.2838480  82.4791570  21.4151390  30.0233320
  83.2189360  22.0479940  28.8639780  77.0969650  19.9540810  14.3050700
  76.8958710  19.0908170  14.6664040  76.9261700  19.8674170  13.3672300
  77.8738880  30.5847080  29.0158370  77.3359970  31.3093140  28.6967070
  78.1272840  30.1077420  28.2255710  79.1264130  18.5531600  30.5414300
  79.7163820  18.2447450  31.2292120  78.3084370  18.0811350  30.6974200
  83.9457560  18.1697410  30.7747320  83.2573080  17.5078950  30.7097310
  84.6663580  17.7235680  31.2195780  75.8952450  17.0541430  14.2928580
  76.1978350  17.0608860  13.3847730  76.6347040  16.7039290  14.7896240
  80.7301090  31.8198290  29.2745020  80.6559790  32.7233430  29.5817390
  79.8279930  31.5010190  29.2467090  79.1137380  15.9976050  15.2784780
  78.7659380  15.3200040  14.6987230  79.3150150  15.5365560  16.0928170
  81.2786420  30.9856800  16.8971380  82.1737210  31.3241770  16.9190140
  81.3104050  30.2636210  16.2695660  74.9182580  26.3583850  15.1258380
  75.3557450  26.9013520  15.7815960  75.4030310  25.5330800  15.1354720
  72.1328380  29.1472880  22.5778640  72.4631390  28.2793940  22.3457280
  72.5619380  29.3531400  23.4083600  76.7290300  27.4781890  20.2380610
  76.4285840  27.3546860  21.1384520  76.6227790  26.6190480  19.8296340
  72.6218590  30.0143470  25.3160270  72.1849580  30.1944270  26.1484420
  73.1896270  30.7718090  25.1741990  72.4543020  22.5263700  21.6749150
  71.7991860  22.2575340  21.0308850  73.2920970  22.4168180  21.2251130
  73.4918950  22.9116270  26.2152490  73.8591990  22.8243670  27.0948510
  72.9229770  22.1482820  26.1159350  73.0434950  19.8225360  30.1210910
  72.1491000  19.7892120  30.4604620  73.5832500  20.0212150  30.8862160
  71.6681100  19.7362630  17.6174480  70.7645180  19.9992830  17.4426140
  72.1521720  20.0073800  16.8374440  74.2108310  18.7928170  15.5268860
  74.9200010  18.3711390  15.0416140  73.4948250  18.8603400  14.8952210
  73.8582470  14.8467500  14.5671510  74.5810600  15.3876440  14.8852730
  74.1306990  14.5730920  13.6913050  73.5474660  14.0973690  24.4694130
  74.1950850  13.5471070  24.0289290  73.9676500  14.3516840  25.2909940
  73.3006660  14.2529360  27.2119450  72.9521480  14.7093180  27.9777630
  72.9694360  13.3586490  27.2941880  74.9071030  27.4248960  31.3772640
  74.8640660  27.0541870  32.2587100  75.0382040  28.3626530  31.5174460
  78.6077060  28.9808550  26.9782360  78.3668420  29.2483110  26.0912880
  79.5479700  29.1514280  27.0333220  80.8131480  15.4441240  30.7338870
  80.7520370  16.0363070  31.4834280  81.7531860  15.3367200  30.5889130
  83.4506040  15.1011300  30.3731160  84.0646450  15.4190590  29.7112240
  83.9955600  14.6159890  30.9927020  73.9727300  13.7805560  30.4870220
  74.5210290  13.5993610  29.7236330  74.0382610  12.9899670  31.0226530
  74.7459060  30.3711210  28.4970420  74.1519380  30.2395910  29.2360460
  74.7382900  29.5349350  28.0312520  84.1914080  13.6643440  26.7000450
  83.3173920  13.9978550  26.4973380  84.0824830  13.1916620  27.5252320
  74.3771290  27.7369590  27.4478460  73.6505350  27.1174880  27.3804410
  74.4380440  28.1310200  26.5776540  77.9816390  29.9514590  24.2327870
  78.4981410  29.3401950  23.7076130  78.6313770  30.4543370  24.7238880
  80.7211890  30.8423080  25.0596850  81.0089700  30.5877380  24.1829860
  81.2335110  30.2900440  25.6502420  81.9388900  14.5813280  25.6393360
  81.1560690  15.0558780  25.9190120  81.6451830  13.6768110  25.5306540
  72.6601290  31.0543980  20.6575220  72.4923330  30.4214660  21.3557110
  71.7935800  31.2603380  20.3069410  73.2829310  14.8860760  18.1607080
  74.0408670  14.9989640  17.5871110  72.8206480  15.7229960  18.1150510
  79.8243120  17.0000030  21.1509390  79.0117630  16.6256920  20.8105270
  80.3284760  16.2445110  21.4530580  74.2663990  29.7477210  18.1025360
  73.7411610  30.1285240  17.3987320  74.1908570  30.3727980  18.8235070
  75.6554460  15.4124810  16.7009050  76.1847220  14.6254610  16.5717000
  76.2882780  16.0916000  16.9344580  77.8492300  15.1499950  19.7554440
  77.2195040  14.4487260  19.9224570  77.3097440  15.9104080  19.5387600
  80.7884250  31.7639180  32.4265050  81.7151560  31.5283450  32.4701010
  80.7734680  32.5911180  31.9451080  77.9747860  14.4283930  32.1906930
  77.6932130  14.9317530  31.4267750  78.3567560  13.6305680  31.8249060
  76.8656960  31.6959590  16.9774610  77.5975780  31.4118870  16.4298500
  77.1250630  31.4572870  17.8673990  76.0271750  27.8124320  16.9820940
  75.3980630  28.2809420  17.5306770  76.1419580  26.9673540  17.4167130
  83.4821470  21.8629980   3.1322140  83.4015520  20.9484590   2.8613850
  83.0685890  22.3597050   2.4261850  81.6139510  23.6409000   5.0131410
  80.8381610  23.1609440   5.3029980  82.2652440  22.9614650   4.8387570
  75.6305340  23.9528810   5.8907170  74.7990220  23.6977520   6.2903680
  76.2386320  24.0239580   6.6265090  75.6106600  27.9868900   6.0865190
  75.9134640  27.0966640   5.9075410  76.3550190  28.5439120   5.8587440
  72.0030300  21.5136350   5.5589260  72.5746410  20.7458550   5.5592900
  72.0031840  21.8125110   4.6495870  81.8610250  30.3327200   3.4134530
  81.2421690  30.7884700   2.8428970  82.7162030  30.4878660   3.0124230
  81.0548500  26.3166190   5.0201570  80.9856780  25.3756130   4.8590700
  81.8168360  26.4067600   5.5924140  73.2455170  16.9220710   7.3458190
  73.0658010  16.0246460   7.6260950  72.8435250  17.4692580   8.0205140
  82.0853670  19.1236570   5.2470500  82.4618490  18.2508450   5.1344170
  81.9873180  19.4595270   4.3560940  73.8641840  19.4181210   5.9540530
  74.5451950  19.6819580   6.5727930  73.5489890  18.5782080   6.2878540
  78.0566410  20.4648570   5.0413120  78.5644630  20.9629540   5.6818140
  78.5879650  19.6883770   4.8652480  76.3402510  15.1047130   9.3076540
  76.3420950  15.6219520   8.5022440  75.5106820  14.6277310   9.2846470
  77.5905360  24.7442310   7.4850040  77.2574740  25.3711230   8.1271110
  77.7672040  25.2704190   6.7051710  76.0217840  16.8157090   7.3146990
  76.3634650  17.6599140   7.0200860  75.0833650  16.9640830   7.4312330
  76.8024460  26.7123110   9.2999220  77.4198460  27.3874190   9.0183670
  75.9417580  27.1211090   9.2086720  79.7045730  14.3039360   3.6391580
  80.0120710  13.7486250   2.9227080  78.7746430  14.4383820   3.4564570
  77.6983130  22.8952930   3.1571430  77.2940130  22.1830180   2.6617330
  77.7846250  22.5506170   4.0459470  78.1664830  26.5820490   5.3210640
  77.8693120  25.9765960   4.6418420  79.1164650  26.6197800   5.2100000
  76.4111750  19.6696140   6.9370470  76.9626340  19.7791480   6.1623720
  76.9255260  20.0433740   7.6525700  77.2583260  26.3202180  11.9718440
  76.3611790  26.5442150  12.2191840  77.2836130  26.4437120  11.0229840
  76.0854480  23.1915500  10.5475810  75.9462250  24.0638300  10.9163210
  75.2035840  22.8488310  10.4023750  82.4083860  28.1091370   1.8540940
  82.8479770  28.8515700   1.4396330  82.3470750  28.3517940   2.7779900
  77.8834830  29.1337200  12.7560960  77.8550260  29.5380150  11.8889390
  77.7199800  28.2047560  12.5932560  72.0373130  24.9613050   6.4646720
  72.1153550  25.0961820   5.5202440  72.6514810  24.2528940   6.6574840
  73.2820760  26.6613240   2.8752900  72.8748840  26.8027830   2.0206500
  74.1733770  26.3773400   2.6724110  83.0999640  30.8105150   9.7819950
  83.6144310  30.7213160  10.5842380  82.2568720  31.1564850  10.0747860
  84.3430100  30.2310760   1.8450440  84.7987050  29.4500140   2.1589060
  84.6822620  30.9417580   2.3891620  72.0932650  26.0027220   9.0041180
  72.2563690  25.5332580   8.1860550  72.5585100  25.4950780   9.6690020
  76.8651420  15.1332980   4.0401750  76.4219570  15.9142520   3.7086270
  77.4236410  15.4562870   4.7472690  81.1521230  18.0001500   9.6437070
  80.6900600  18.2084520  10.4557010  80.7499340  17.1860850   9.3407740
  83.2475450  20.7212200  12.8732520  83.5728860  19.8875950  12.5334750
  84.0355780  21.2440720  13.0210850  78.9027320  15.6780310   5.8991350
  79.1999650  16.5843140   5.8183370  79.4512880  15.1899090   5.2850920
  76.6565640  20.2566550   1.7683000  76.4306560  20.0403720   2.6729620
  75.8758170  20.6895010   1.4228970  79.0964850  21.1552130  12.4343270
  79.0008450  20.2146860  12.2843670  79.9396830  21.3767200  12.0391340
  82.4928270  18.8993460   2.3976930  82.8857840  19.2165660   1.5845620
  82.8545120  18.0205340   2.5121450  74.2275390  17.5665800  10.5877050
  73.8338780  18.4141010  10.7949830  73.5393790  16.9292170  10.7785690
  80.8020440  17.6500770  13.6573790  80.1118760  17.4572970  14.2919880
  81.5452740  17.9335410  14.1898090  71.5292440  15.4894260   4.6207130
  71.2405490  16.0597120   5.3332110  72.2738200  15.0098710   4.9838360
  83.0783410  21.4899210   6.4927710  82.3464530  21.9986020   6.8417810
  82.6807750  20.6729190   6.1916490  79.5160800  18.1653410   4.8980200
  79.5196860  17.7243360   4.0484740  80.4111920  18.4870740   5.0052020
  75.3663180  18.0479900   3.8574410  75.0263230  18.5255130   4.6141460
  74.6040500  17.5945020   3.4975510  83.5409320  16.9432890   5.9050650
  83.5582060  17.3941540   6.7492500  83.2924900  16.0438530   6.1184090
  73.6671630  25.3778650  11.1636990  73.2826420  24.7372320  11.7619950
  73.9783820  26.0814770  11.7331720  79.8168770  22.2255190   6.6445610
  80.1838900  21.7513760   7.3906950  79.6273830  23.0996760   6.9853950
  72.6809260  16.9698880   2.7739080  72.3956180  16.6054550   3.6117700
  72.6188120  16.2379340   2.1602220  77.6068140  21.2663830   8.9629820
  77.3025210  22.1455810   9.1880180  78.5614600  21.3263620   8.9987260
  82.2756710  24.5399240  11.2392060  82.2094020  23.6194910  10.9849650
  81.6461850  24.6374680  11.9536700  76.1787330  25.1405200   3.1975480
  76.6966000  24.3373460   3.1432370  75.7271350  25.0784340   4.0392310
  73.6631870  22.1066570  10.1101180  73.3046810  22.7720420  10.6974520
  73.3686430  21.2750120  10.4813800  76.8644990  22.5650810  12.9940730
  76.5645130  22.7107990  12.0968550  77.6356230  22.0056100  12.9014120
  82.2073440  27.3619810  10.9895860  82.2217980  26.4300770  10.7714770
  81.4998540  27.4479570  11.6285630  83.9484240  25.7287320   3.8348290
  84.3008060  25.1315450   3.1749660  83.0646570  25.4031550   4.0056540
  81.6407340  29.0037380   8.0836360  82.2849560  29.2096760   8.7609780
  82.0036780  28.2425780   7.6307210  82.9139420  27.0069730   6.8013810
  83.5561650  26.3062890   6.9145980  83.4388770  27.7868170   6.6210700
  72.2380440  15.5959810  10.7873280  71.5238960  15.7956730  11.3925890
  72.6575480  14.8199380  11.1588080  72.5253030  29.5840070  11.7739810
  72.6344150  28.6434810  11.6335200  71.8733590  29.8494820  11.1253540
  80.5165620  27.8555960  13.1737930  80.1962490  27.1365200  13.7183620
  79.8423980  28.5311030  13.2473990  83.7319220  18.0882120   8.5374730
  84.1000040  17.2677330   8.8654300  82.8717420  18.1484010   8.9530380
  80.6921210  20.7421710   8.7612700  81.1906460  21.2167530   9.4264550
  80.8344160  19.8185230   8.9682730  75.6653190  31.4662910   4.3973840
  76.4015670  30.9178370   4.6682410  76.0494110  32.3318920   4.2579830
  74.6711470  30.6508980  13.5859420  75.4724200  30.9721030  13.9994820
  74.1563290  30.2904560  14.3079330  83.5076100  26.7588850  13.5334830
  82.9014260  26.7820450  12.7930580  83.2030210  26.0271890  14.0702080
  72.3909280  23.1382440  12.5295470  72.8948300  22.5589720  13.1011700
  71.6516700  23.4222670  13.0671840  79.4447220  24.5453430  12.0630990
  78.6792890  25.1138430  11.9785660  79.6263180  24.2529640  11.1699220
  74.4232360  21.2812030  13.4245540  74.4637700  20.9825900  14.3330770
  75.2777860  21.6819640  13.2653060  76.3638170  19.8604130  11.3920030
  75.8334630  19.3695080  10.7643370  77.0326240  20.2888330  10.8577960
  76.8510470  16.8266500  11.4717320  76.7567340  16.2087250  10.7468190
  76.2707860  17.5532790  11.2447230  79.6171910  15.3839740   8.5044710
  79.1689210  15.4064000   7.6590260  78.9837110  14.9858760   9.1015010
  80.0231460  24.2794070   9.1257150  80.4419570  25.1226800   8.9533390
  79.1040090  24.4166110   8.8963930  82.3595360  22.0110250  10.5094990
  82.4791570  21.4151390  11.2489830  83.2189360  22.0479940  10.0896290
  77.8738880  30.5847080  10.2414880  77.3359970  31.3093140   9.9223580
  78.1272840  30.1077420   9.4512220  79.1264130  18.5531600  11.7670810
  79.7163820  18.2447450  12.4548630  78.3084370  18.0811350  11.9230710
  83.9457560  18.1697410  12.0003830  83.2573080  17.5078950  11.9353820
  84.6663580  17.7235680  12.4452290  80.7301090  31.8198290  10.5001530
  80.6559790  32.7233430  10.8073900  79.8279930  31.5010190  10.4723600
  72.1328380  29.1472880   3.8035150  72.4631390  28.2793940   3.5713790
  72.5619380  29.3531400   4.6340110  72.6218590  30.0143470   6.5416780
  72.1849580  30.1944270   7.3740930  73.1896270  30.7718090   6.3998500
  72.4543020  22.5263700   2.9005660  71.7991860  22.2575340   2.2565360
  73.2920970  22.4168180   2.4507640  73.4918950  22.9116270   7.4409000
  73.8591990  22.8243670   8.3205020  72.9229770  22.1482820   7.3415860
  73.0434950  19.8225360  11.3467420  72.1491000  19.7892120  11.6861130
  73.5832500  20.0212150  12.1118670  73.5474660  14.0973690   5.6950640
  74.1950850  13.5471070   5.2545800  73.9676500  14.3516840   6.5166450
  73.3006660  14.2529360   8.4375960  72.9521480  14.7093180   9.2034140
  72.9694360  13.3586490   8.5198390  74.9071030  27.4248960  12.6029150
  74.8640660  27.0541870  13.4843610  75.0382040  28.3626530  12.7430970
  78.6077060  28.9808550   8.2038870  78.3668420  29.2483110   7.3169390
  79.5479700  29.1514280   8.2589730  80.8131480  15.4441240  11.9595380
  80.7520370  16.0363070  12.7090790  81.7531860  15.3367200  11.8145640
  83.4506040  15.1011300  11.5987670  84.0646450  15.4190590  10.9368750
  83.9955600  14.6159890  12.2183530  73.9727300  13.7805560  11.7126730
  74.5210290  13.5993610  10.9492840  74.0382610  12.9899670  12.2483040
  74.7459060  30.3711210   9.7226930  74.1519380  30.2395910  10.4616970
  74.7382900  29.5349350   9.2569030  84.1914080  13.6643440   7.9256960
  83.3173920  13.9978550   7.7229890  84.0824830  13.1916620   8.7508830
  74.3771290  27.7369590   8.6734970  73.6505350  27.1174880   8.6060920
  74.4380440  28.1310200   7.8033050  77.9816390  29.9514590   5.4584380
  78.4981410  29.3401950   4.9332640  78.6313770  30.4543370   5.9495390
  80.7211890  30.8423080   6.2853360  81.0089700  30.5877380   5.4086370
  81.2335110  30.2900440   6.8758930  81.9388900  14.5813280   6.8649870
  81.1560690  15.0558780   7.1446630  81.6451830  13.6768110   6.7563050
  72.6601290  31.0543980   1.8831730  72.4923330  30.4214660   2.5813620
  71.7935800  31.2603380   1.5325920  79.8243120  17.0000030   2.3765900
  79.0117630  16.6256920   2.0361780  80.3284760  16.2445110   2.6787090
  80.7884250  31.7639180  13.6521560  81.7151560  31.5283450  13.6957520
  80.7734680  32.5911180  13.1707590  77.9747860  14.4283930  13.4163440
  77.6932130  14.9317530  12.6524260  78.3567560  13.6305680  13.0505570
  83.4821470   3.0886490  78.2296100  83.4015520   2.1741100  77.9587810
  83.0685890   3.5853560  77.5235810  81.6139510   4.8665510  80.1105370
  80.8381610   4.3865950  80.4003940  82.2652440   4.1871160  79.9361530
  75.6305340   5.1785320  80.9881130  74.7990220   4.9234030  81.3877640
  76.2386320   5.2496090  81.7239050  75.6106600   9.2125410  81.1839150
  75.9134640   8.3223150  81.0049370  76.3550190   9.7695630  80.9561400
  72.0030300   2.7392860  80.6563220  72.5746410   1.9715060  80.6566860
  72.0031840   3.0381620  79.7469830  81.8610250  11.5583710  78.5108490
  81.2421690  12.0141210  77.9402930  82.7162030  11.7135170  78.1098190
  81.0548500   7.5422700  80.1175530  80.9856780   6.6012640  79.9564660
  81.8168360   7.6324110  80.6898100  82.7273600   6.4422950  75.9040400
  82.1090870   6.9072400  75.3403120  83.2396850   7.1350430  76.3209910
  77.5905360   5.9698820  82.5824000  77.2574740   6.5967740  83.2245070
  77.7672040   6.4960700  81.8025670  72.0956800   7.1279480  73.2780030
  71.7184780   7.6166580  72.5464930  72.3529870   7.8004760  73.9086560
  82.0926490   3.5944700  75.4725660  81.1655770   3.5282080  75.7014130
  82.2451310   4.5324830  75.3580900  77.6983130   4.1209440  78.2545390
  77.2940130   3.4086690  77.7591290  77.7846250   3.7762680  79.1433430
  78.1664830   7.8077000  80.4184600  77.8693120   7.2022470  79.7392380
  79.1164650   7.8454310  80.3073960  82.4083860   9.3347880  76.9514900
  82.8479770  10.0772210  76.5370290  82.3470750   9.5774450  77.8753860
  74.3987760   3.0154420  75.7552040  74.2785360   3.7416510  75.1433310
  74.0888650   2.2457330  75.2779950  72.0373130   6.1869560  81.5620680
  72.1153550   6.3218330  80.6176400  72.6514810   5.4785450  81.7548800
  73.2820760   7.8869750  77.9726860  72.8748840   8.0284340  77.1180460
  74.1733770   7.6029910  77.7698070  77.5542420  12.1015530  76.0849530
  77.3784900  11.1851070  75.8717330  76.6998160  12.4602820  76.3247330
  84.3430100  11.4567270  76.9424400  84.7987050  10.6756650  77.2563020
  84.6822620  12.1674090  77.4865580  83.0783410   2.7155720  81.5901670
  82.3464530   3.2242530  81.9391770  82.6807750   1.8985700  81.2890450
  78.5902450   2.7023140  72.3844220  78.0219350   2.2541390  71.7580130
  79.2991450   3.0615920  71.8509370  79.8168770   3.4511700  81.7419570
  80.1838900   2.9770270  82.4880910  79.6273830   4.3253270  82.0827910
  76.1349930   6.6981330  74.6570630  75.3612190   6.1578950  74.4969350
  76.8644560   6.1787940  74.3188390  76.1787330   6.3661710  78.2949440
  76.6966000   5.5629970  78.2406330  75.7271350   6.3040850  79.1366270
  81.0656830   7.6327990  73.5676740  81.4072530   8.3770220  73.0720060
  80.2369540   7.9459110  73.9301570  83.9484240   6.9543830  78.9322250
  84.3008060   6.3571960  78.2723620  83.0646570   6.6288060  79.1030500
  80.0347520   7.7141520  76.3392660  80.7218650   8.2610730  76.7200250
  79.2479940   8.2582250  76.3742270  72.1739920   3.3314340  71.8309740
  73.0434770   3.6139140  72.1145660  71.6830240   4.1450210  71.7158550
  79.3374730   4.7187550  75.9518020  79.7937510   5.5292800  76.1778210
  78.9862940   4.4010690  76.7836510  82.9139420   8.2326240  81.8987770
  83.5561650   7.5319400  82.0119940  83.4388770   9.0124680  81.7184660
  72.5411170  12.5441720  72.3971370  72.9008810  13.1431060  71.7428640
  72.4003510  13.0901610  73.1706400  78.5579790   9.9272920  73.2145040
  78.5489890  10.6602610  72.5989550  77.6378150   9.6804500  73.3072000
  74.1586430   5.1487810  73.9591800  73.5514380   5.8886710  73.9687100
  74.6335780   5.2387170  73.1330000  81.5439390   9.9901160  71.8770230
  81.6451370   9.7865150  70.9472210  80.6441130   9.7359440  72.0818010
  80.1857500  12.5087480  76.5717900  80.4399000  12.4708870  75.6497270
  79.2369980  12.3820810  76.5646150  76.1691720   5.1098960  71.7080370
  76.9354990   4.9980320  72.2705800  76.2466410   4.4136930  71.0557140
  74.8638480   2.5424030  72.3913260  74.9442070   1.5951540  72.5030660
  75.7558230   2.8730910  72.4973920  75.6653190  12.6919420  79.4947800
  76.4015670  12.1434880  79.7656370  76.0494110  13.5575430  79.3553790
  72.5498670   8.7592990  75.3689310  71.6238450   9.0014130  75.3594720
  73.0155100   9.5867250  75.2474060  78.7755500  11.8649730  71.3173370
  79.5684110  12.1538560  70.8655160  78.2559850  11.4341900  70.6385850
  79.2932900   7.0853140  71.1815720  79.1883540   6.4705490  71.9077100
  79.1257120   6.5619030  70.3978730  82.5335630   6.1473170  71.7857710
  81.9845730   6.5942470  72.4300450  83.1554890   5.6422420  72.3095380
  78.2010750   5.1064090  73.6823010  78.6227170   4.9403960  74.5254400
  78.3261590   4.2964320  73.1878150  80.7138390   4.1301700  70.9300110
  81.2344050   3.4150720  70.5641260  81.3606790   4.7687570  71.2300620
  81.2786420  12.2113310  73.2201850  82.1737210  12.5498280  73.2420610
  81.3104050  11.4892720  72.5926130  74.9182580   7.5840360  71.4488850
  75.3557450   8.1270030  72.1046430  75.4030310   6.7587310  71.4585190
  72.1328380  10.3729390  78.9009110  72.4631390   9.5050450  78.6687750
  72.5619380  10.5787910  79.7314070  76.7290300   8.7038400  76.5611080
  76.4285840   8.5803370  77.4614990  76.6227790   7.8446990  76.1526810
  72.6218590  11.2399980  81.6390740  72.1849580  11.4200780  82.4714890
  73.1896270  11.9974600  81.4972460  72.4543020   3.7520210  77.9979620
  71.7991860   3.4831850  77.3539320  73.2920970   3.6424690  77.5481600
  77.9816390  11.1771100  80.5558340  78.4981410  10.5658460  80.0306600
  78.6313770  11.6799880  81.0469350  80.7211890  12.0679590  81.3827320
  81.0089700  11.8133890  80.5060330  81.2335110  11.5156950  81.9732890
  72.6601290  12.2800490  76.9805690  72.4923330  11.6471170  77.6787580
  71.7935800  12.4859890  76.6299880  74.2663990  10.9733720  74.4255830
  73.7411610  11.3541750  73.7217790  74.1908570  11.5984490  75.1465540
  76.8656960  12.9216100  73.3005080  77.5975780  12.6375380  72.7528970
  77.1250630  12.6829380  74.1904460  76.0271750   9.0380830  73.3051410
  75.3980630   9.5065930  73.8537240  76.1419580   8.1930050  73.7397600
  83.4821470   3.0886490  59.4552610  83.4015520   2.1741100  59.1844320
  83.0685890   3.5853560  58.7492320  81.6139510   4.8665510  61.3361880
  80.8381610   4.3865950  61.6260450  82.2652440   4.1871160  61.1618040
  75.6305340   5.1785320  62.2137640  74.7990220   4.9234030  62.6134150
  76.2386320   5.2496090  62.9495560  75.6106600   9.2125410  62.4095660
  75.9134640   8.3223150  62.2305880  76.3550190   9.7695630  62.1817910
  72.0030300   2.7392860  61.8819730  72.5746410   1.9715060  61.8823370
  72.0031840   3.0381620  60.9726340  81.8610250  11.5583710  59.7365000
  81.2421690  12.0141210  59.1659440  82.7162030  11.7135170  59.3354700
  81.0548500   7.5422700  61.3432040  80.9856780   6.6012640  61.1821170
  81.8168360   7.6324110  61.9154610  82.7273600   6.4422950  57.1296910
  82.1090870   6.9072400  56.5659630  83.2396850   7.1350430  57.5466420
  77.5905360   5.9698820  63.8080510  77.2574740   6.5967740  64.4501580
  77.7672040   6.4960700  63.0282180  76.8024460   7.9379620  65.6229690
  77.4198460   8.6130700  65.3414140  75.9417580   8.3467600  65.5317190
  72.0956800   7.1279480  54.5036540  71.7184780   7.6166580  53.7721440
  72.3529870   7.8004760  55.1343070  82.0926490   3.5944700  56.6982170
  81.1655770   3.5282080  56.9270640  82.2451310   4.5324830  56.5837410
  77.6983130   4.1209440  59.4801900  77.2940130   3.4086690  58.9847800
  77.7846250   3.7762680  60.3689940  78.1664830   7.8077000  61.6441110
  77.8693120   7.2022470  60.9648890  79.1164650   7.8454310  61.5330470
  77.2583260   7.5458690  68.2948910  76.3611790   7.7698660  68.5422310
  77.2836130   7.6693630  67.3460310  76.0854480   4.4172010  66.8706280
  75.9462250   5.2894810  67.2393680  75.2035840   4.0744820  66.7254220
  82.4083860   9.3347880  58.1771410  82.8479770  10.0772210  57.7626800
  82.3470750   9.5774450  59.1010370  77.8834830  10.3593710  69.0791430
  77.8550260  10.7636660  68.2119860  77.7199800   9.4304070  68.9163030
  74.3987760   3.0154420  56.9808550  74.2785360   3.7416510  56.3689820
  74.0888650   2.2457330  56.5036460  72.0373130   6.1869560  62.7877190
  72.1153550   6.3218330  61.8432910  72.6514810   5.4785450  62.9805310
  73.2820760   7.8869750  59.1983370  72.8748840   8.0284340  58.3436970
  74.1733770   7.6029910  58.9954580  83.0999640  12.0361660  66.1050420
  83.6144310  11.9469670  66.9072850  82.2568720  12.3821360  66.3978330
  77.5542420  12.1015530  57.3106040  77.3784900  11.1851070  57.0973840
  76.6998160  12.4602820  57.5503840  84.3430100  11.4567270  58.1680910
  84.7987050  10.6756650  58.4819530  84.6822620  12.1674090  58.7122090
  72.0932650   7.2283730  65.3271650  72.2563690   6.7589090  64.5091020
  72.5585100   6.7207290  65.9920490  83.0783410   2.7155720  62.8158180
  82.3464530   3.2242530  63.1648280  82.6807750   1.8985700  62.5146960
  78.5902450   2.7023140  53.6100730  78.0219350   2.2541390  52.9836640
  79.2991450   3.0615920  53.0765880  73.6671630   6.6035160  67.4867460
  73.2826420   5.9628830  68.0850420  73.9783820   7.3071280  68.0562190
  79.8168770   3.4511700  62.9676080  80.1838900   2.9770270  63.7137420
  79.6273830   4.3253270  63.3084420  77.6068140   2.4920340  65.2860290
  77.3025210   3.3712320  65.5110650  78.5614600   2.5520130  65.3217730
  76.1349930   6.6981330  55.8827140  75.3612190   6.1578950  55.7225860
  76.8644560   6.1787940  55.5444900  82.2756710   5.7655750  67.5622530
  82.2094020   4.8451420  67.3080120  81.6461850   5.8631190  68.2767170
  76.1787330   6.3661710  59.5205950  76.6966000   5.5629970  59.4662840
  75.7271350   6.3040850  60.3622780  81.0656830   7.6327990  54.7933250
  81.4072530   8.3770220  54.2976570  80.2369540   7.9459110  55.1558080
  73.6631870   3.3323080  66.4331650  73.3046810   3.9976930  67.0204990
  73.3686430   2.5006630  66.8044270  76.8644990   3.7907320  69.3171200
  76.5645130   3.9364500  68.4199020  77.6356230   3.2312610  69.2244590
  82.2073440   8.5876320  67.3126330  82.2217980   7.6557280  67.0945240
  81.4998540   8.6736080  67.9516100  83.9484240   6.9543830  60.1578760
  84.3008060   6.3571960  59.4980130  83.0646570   6.6288060  60.3287010
  80.0347520   7.7141520  57.5649170  80.7218650   8.2610730  57.9456760
  79.2479940   8.2582250  57.5998780  72.1739920   3.3314340  53.0566250
  73.0434770   3.6139140  53.3402170  71.6830240   4.1450210  52.9415060
  79.3374730   4.7187550  57.1774530  79.7937510   5.5292800  57.4034720
  78.9862940   4.4010690  58.0093020  81.6407340  10.2293890  64.4066830
  82.2849560  10.4353270  65.0840250  82.0036780   9.4682290  63.9537680
  82.9139420   8.2326240  63.1244280  83.5561650   7.5319400  63.2376450
  83.4388770   9.0124680  62.9441170  72.5411170  12.5441720  53.6227880
  72.9008810  13.1431060  52.9685150  72.4003510  13.0901610  54.3962910
  72.5253030  10.8096580  68.0970280  72.6344150   9.8691320  67.9565670
  71.8733590  11.0751330  67.4484010  80.5165620   9.0812470  69.4968400
  80.1962490   8.3621710  70.0414090  79.8423980   9.7567540  69.5704460
  78.5579790   9.9272920  54.4401550  78.5489890  10.6602610  53.8246060
  77.6378150   9.6804500  54.5328510  74.1586430   5.1487810  55.1848310
  73.5514380   5.8886710  55.1943610  74.6335780   5.2387170  54.3586510
  81.5439390   9.9901160  53.1026740  81.6451370   9.7865150  52.1728720
  80.6441130   9.7359440  53.3074520  80.1857500  12.5087480  57.7974410
  80.4399000  12.4708870  56.8753780  79.2369980  12.3820810  57.7902660
  76.1691720   5.1098960  52.9336880  76.9354990   4.9980320  53.4962310
  76.2466410   4.4136930  52.2813650  74.8638480   2.5424030  53.6169770
  74.9442070   1.5951540  53.7287170  75.7558230   2.8730910  53.7230430
  75.6653190  12.6919420  60.7204310  76.4015670  12.1434880  60.9912880
  76.0494110  13.5575430  60.5810300  72.5498670   8.7592990  56.5945820
  71.6238450   9.0014130  56.5851230  73.0155100   9.5867250  56.4730570
  74.6711470  11.8765490  69.9089890  75.4724200  12.1977540  70.3225290
  74.1563290  11.5161070  70.6309800  78.7755500  11.8649730  52.5429880
  79.5684110  12.1538560  52.0911670  78.2559850  11.4341900  51.8642360
  83.5076100   7.9845360  69.8565300  82.9014260   8.0076960  69.1161050
  83.2030210   7.2528400  70.3932550  72.3909280   4.3638950  68.8525940
  72.8948300   3.7846230  69.4242170  71.6516700   4.6479180  69.3902310
  79.2932900   7.0853140  52.4072230  79.1883540   6.4705490  53.1333610
  79.1257120   6.5619030  51.6235240  79.4447220   5.7709940  68.3861460
  78.6792890   6.3394940  68.3016130  79.6263180   5.4786150  67.4929690
  82.5335630   6.1473170  53.0114220  81.9845730   6.5942470  53.6556960
  83.1554890   5.6422420  53.5351890  74.4232360   2.5068540  69.7476010
  74.4637700   2.2082410  70.6561240  75.2777860   2.9076150  69.5883530
  78.2010750   5.1064090  54.9079520  78.6227170   4.9403960  55.7510910
  78.3261590   4.2964320  54.4134660  80.7138390   4.1301700  52.1556620
  81.2344050   3.4150720  51.7897770  81.3606790   4.7687570  52.4557130
  80.0231460   5.5050580  65.4487620  80.4419570   6.3483310  65.2763860
  79.1040090   5.6422620  65.2194400  82.3595360   3.2366760  66.8325460
  82.4791570   2.6407900  67.5720300  83.2189360   3.2736450  66.4126760
  77.8738880  11.8103590  66.5645350  77.3359970  12.5349650  66.2454050
  78.1272840  11.3333930  65.7742690  80.7301090  13.0454800  66.8232000
  80.6559790  13.9489940  67.1304370  79.8279930  12.7266700  66.7954070
  81.2786420  12.2113310  54.4458360  82.1737210  12.5498280  54.4677120
  81.3104050  11.4892720  53.8182640  74.9182580   7.5840360  52.6745360
  75.3557450   8.1270030  53.3302940  75.4030310   6.7587310  52.6841700
  72.1328380  10.3729390  60.1265620  72.4631390   9.5050450  59.8944260
  72.5619380  10.5787910  60.9570580  76.7290300   8.7038400  57.7867590
  76.4285840   8.5803370  58.6871500  76.6227790   7.8446990  57.3783320
  72.6218590  11.2399980  62.8647250  72.1849580  11.4200780  63.6971400
  73.1896270  11.9974600  62.7228970  72.4543020   3.7520210  59.2236130
  71.7991860   3.4831850  58.5795830  73.2920970   3.6424690  58.7738110
  73.4918950   4.1372780  63.7639470  73.8591990   4.0500180  64.6435490
  72.9229770   3.3739330  63.6646330  74.9071030   8.6505470  68.9259620
  74.8640660   8.2798380  69.8074080  75.0382040   9.5883040  69.0661440
  78.6077060  10.2065060  64.5269340  78.3668420  10.4739620  63.6399860
  79.5479700  10.3770790  64.5820200  74.7459060  11.5967720  66.0457400
  74.1519380  11.4652420  66.7847440  74.7382900  10.7605860  65.5799500
  74.3771290   8.9626100  64.9965440  73.6505350   8.3431390  64.9291390
  74.4380440   9.3566710  64.1263520  77.9816390  11.1771100  61.7814850
  78.4981410  10.5658460  61.2563110  78.6313770  11.6799880  62.2725860
  80.7211890  12.0679590  62.6083830  81.0089700  11.8133890  61.7316840
  81.2335110  11.5156950  63.1989400  72.6601290  12.2800490  58.2062200
  72.4923330  11.6471170  58.9044090  71.7935800  12.4859890  57.8556390
  74.2663990  10.9733720  55.6512340  73.7411610  11.3541750  54.9474300
  74.1908570  11.5984490  56.3722050  80.7884250  12.9895690  69.9752030
  81.7151560  12.7539960  70.0187990  80.7734680  13.8167690  69.4938060
  76.8656960  12.9216100  54.5261590  77.5975780  12.6375380  53.9785480
  77.1250630  12.6829380  55.4160970  76.0271750   9.0380830  54.5307920
  75.3980630   9.5065930  55.0793750  76.1419580   8.1930050  54.9654110
  83.4821470   3.0886490  40.6809120  83.4015520   2.1741100  40.4100830
  83.0685890   3.5853560  39.9748830  81.6139510   4.8665510  42.5618390
  80.8381610   4.3865950  42.8516960  82.2652440   4.1871160  42.3874550
  75.6305340   5.1785320  43.4394150  74.7990220   4.9234030  43.8390660
  76.2386320   5.2496090  44.1752070  75.6106600   9.2125410  43.6352170
  75.9134640   8.3223150  43.4562390  76.3550190   9.7695630  43.4074420
  72.0030300   2.7392860  43.1076240  72.5746410   1.9715060  43.1079880
  72.0031840   3.0381620  42.1982850  81.8610250  11.5583710  40.9621510
  81.2421690  12.0141210  40.3915950  82.7162030  11.7135170  40.5611210
  81.0548500   7.5422700  42.5688550  80.9856780   6.6012640  42.4077680
  81.8168360   7.6324110  43.1411120  82.7273600   6.4422950  38.3553420
  82.1090870   6.9072400  37.7916140  83.2396850   7.1350430  38.7722930
  77.5905360   5.9698820  45.0337020  77.2574740   6.5967740  45.6758090
  77.7672040   6.4960700  44.2538690  76.8024460   7.9379620  46.8486200
  77.4198460   8.6130700  46.5670650  75.9417580   8.3467600  46.7573700
  72.0956800   7.1279480  35.7293050  71.7184780   7.6166580  34.9977950
  72.3529870   7.8004760  36.3599580  82.0926490   3.5944700  37.9238680
  81.1655770   3.5282080  38.1527150  82.2451310   4.5324830  37.8093920
  77.6983130   4.1209440  40.7058410  77.2940130   3.4086690  40.2104310
  77.7846250   3.7762680  41.5946450  78.1664830   7.8077000  42.8697620
  77.8693120   7.2022470  42.1905400  79.1164650   7.8454310  42.7586980
  77.2583260   7.5458690  49.5205420  76.3611790   7.7698660  49.7678820
  77.2836130   7.6693630  48.5716820  76.0854480   4.4172010  48.0962790
  75.9462250   5.2894810  48.4650190  75.2035840   4.0744820  47.9510730
  82.4083860   9.3347880  39.4027920  82.8479770  10.0772210  38.9883310
  82.3470750   9.5774450  40.3266880  77.8834830  10.3593710  50.3047940
  77.8550260  10.7636660  49.4376370  77.7199800   9.4304070  50.1419540
  74.3987760   3.0154420  38.2065060  74.2785360   3.7416510  37.5946330
  74.0888650   2.2457330  37.7292970  72.0373130   6.1869560  44.0133700
  72.1153550   6.3218330  43.0689420  72.6514810   5.4785450  44.2061820
  73.2820760   7.8869750  40.4239880  72.8748840   8.0284340  39.5693480
  74.1733770   7.6029910  40.2211090  83.0999640  12.0361660  47.3306930
  83.6144310  11.9469670  48.1329360  82.2568720  12.3821360  47.6234840
  77.5542420  12.1015530  38.5362550  77.3784900  11.1851070  38.3230350
  76.6998160  12.4602820  38.7760350  84.3430100  11.4567270  39.3937420
  84.7987050  10.6756650  39.7076040  84.6822620  12.1674090  39.9378600
  72.0932650   7.2283730  46.5528160  72.2563690   6.7589090  45.7347530
  72.5585100   6.7207290  47.2177000  83.0783410   2.7155720  44.0414690
  82.3464530   3.2242530  44.3904790  82.6807750   1.8985700  43.7403470
  78.5902450   2.7023140  34.8357240  78.0219350   2.2541390  34.2093150
  79.2991450   3.0615920  34.3022390  73.6671630   6.6035160  48.7123970
  73.2826420   5.9628830  49.3106930  73.9783820   7.3071280  49.2818700
  79.8168770   3.4511700  44.1932590  80.1838900   2.9770270  44.9393930
  79.6273830   4.3253270  44.5340930  77.6068140   2.4920340  46.5116800
  77.3025210   3.3712320  46.7367160  78.5614600   2.5520130  46.5474240
  76.1349930   6.6981330  37.1083650  75.3612190   6.1578950  36.9482370
  76.8644560   6.1787940  36.7701410  82.2756710   5.7655750  48.7879040
  82.2094020   4.8451420  48.5336630  81.6461850   5.8631190  49.5023680
  76.1787330   6.3661710  40.7462460  76.6966000   5.5629970  40.6919350
  75.7271350   6.3040850  41.5879290  81.0656830   7.6327990  36.0189760
  81.4072530   8.3770220  35.5233080  80.2369540   7.9459110  36.3814590
  73.6631870   3.3323080  47.6588160  73.3046810   3.9976930  48.2461500
  73.3686430   2.5006630  48.0300780  76.8644990   3.7907320  50.5427710
  76.5645130   3.9364500  49.6455530  77.6356230   3.2312610  50.4501100
  82.2073440   8.5876320  48.5382840  82.2217980   7.6557280  48.3201750
  81.4998540   8.6736080  49.1772610  83.9484240   6.9543830  41.3835270
  84.3008060   6.3571960  40.7236640  83.0646570   6.6288060  41.5543520
  80.0347520   7.7141520  38.7905680  80.7218650   8.2610730  39.1713270
  79.2479940   8.2582250  38.8255290  72.1739920   3.3314340  34.2822760
  73.0434770   3.6139140  34.5658680  71.6830240   4.1450210  34.1671570
  79.3374730   4.7187550  38.4031040  79.7937510   5.5292800  38.6291230
  78.9862940   4.4010690  39.2349530  81.6407340  10.2293890  45.6323340
  82.2849560  10.4353270  46.3096760  82.0036780   9.4682290  45.1794190
  82.9139420   8.2326240  44.3500790  83.5561650   7.5319400  44.4632960
  83.4388770   9.0124680  44.1697680  72.5411170  12.5441720  34.8484390
  72.9008810  13.1431060  34.1941660  72.4003510  13.0901610  35.6219420
  72.5253030  10.8096580  49.3226790  72.6344150   9.8691320  49.1822180
  71.8733590  11.0751330  48.6740520  80.5165620   9.0812470  50.7224910
  80.1962490   8.3621710  51.2670600  79.8423980   9.7567540  50.7960970
  78.5579790   9.9272920  35.6658060  78.5489890  10.6602610  35.0502570
  77.6378150   9.6804500  35.7585020  74.1586430   5.1487810  36.4104820
  73.5514380   5.8886710  36.4200120  74.6335780   5.2387170  35.5843020
  81.5439390   9.9901160  34.3283250  81.6451370   9.7865150  33.3985230
  80.6441130   9.7359440  34.5331030  80.1857500  12.5087480  39.0230920
  80.4399000  12.4708870  38.1010290  79.2369980  12.3820810  39.0159170
  76.1691720   5.1098960  34.1593390  76.9354990   4.9980320  34.7218820
  76.2466410   4.4136930  33.5070160  74.8638480   2.5424030  34.8426280
  74.9442070   1.5951540  34.9543680  75.7558230   2.8730910  34.9486940
  75.6653190  12.6919420  41.9460820  76.4015670  12.1434880  42.2169390
  76.0494110  13.5575430  41.8066810  72.5498670   8.7592990  37.8202330
  71.6238450   9.0014130  37.8107740  73.0155100   9.5867250  37.6987080
  74.6711470  11.8765490  51.1346400  75.4724200  12.1977540  51.5481800
  74.1563290  11.5161070  51.8566310  78.7755500  11.8649730  33.7686390
  79.5684110  12.1538560  33.3168180  78.2559850  11.4341900  33.0898870
  83.5076100   7.9845360  51.0821810  82.9014260   8.0076960  50.3417560
  83.2030210   7.2528400  51.6189060  72.3909280   4.3638950  50.0782450
  72.8948300   3.7846230  50.6498680  71.6516700   4.6479180  50.6158820
  79.2932900   7.0853140  33.6328740  79.1883540   6.4705490  34.3590120
  79.1257120   6.5619030  32.8491750  79.4447220   5.7709940  49.6117970
  78.6792890   6.3394940  49.5272640  79.6263180   5.4786150  48.7186200
  82.5335630   6.1473170  34.2370730  81.9845730   6.5942470  34.8813470
  83.1554890   5.6422420  34.7608400  74.4232360   2.5068540  50.9732520
  74.4637700   2.2082410  51.8817750  75.2777860   2.9076150  50.8140040
  78.2010750   5.1064090  36.1336030  78.6227170   4.9403960  36.9767420
  78.3261590   4.2964320  35.6391170  80.7138390   4.1301700  33.3813130
  81.2344050   3.4150720  33.0154280  81.3606790   4.7687570  33.6813640
  80.0231460   5.5050580  46.6744130  80.4419570   6.3483310  46.5020370
  79.1040090   5.6422620  46.4450910  82.3595360   3.2366760  48.0581970
  82.4791570   2.6407900  48.7976810  83.2189360   3.2736450  47.6383270
  77.8738880  11.8103590  47.7901860  77.3359970  12.5349650  47.4710560
  78.1272840  11.3333930  46.9999200  80.7301090  13.0454800  48.0488510
  80.6559790  13.9489940  48.3560880  79.8279930  12.7266700  48.0210580
  81.2786420  12.2113310  35.6714870  82.1737210  12.5498280  35.6933630
  81.3104050  11.4892720  35.0439150  74.9182580   7.5840360  33.9001870
  75.3557450   8.1270030  34.5559450  75.4030310   6.7587310  33.9098210
  72.1328380  10.3729390  41.3522130  72.4631390   9.5050450  41.1200770
  72.5619380  10.5787910  42.1827090  76.7290300   8.7038400  39.0124100
  76.4285840   8.5803370  39.9128010  76.6227790   7.8446990  38.6039830
  72.6218590  11.2399980  44.0903760  72.1849580  11.4200780  44.9227910
  73.1896270  11.9974600  43.9485480  72.4543020   3.7520210  40.4492640
  71.7991860   3.4831850  39.8052340  73.2920970   3.6424690  39.9994620
  73.4918950   4.1372780  44.9895980  73.8591990   4.0500180  45.8692000
  72.9229770   3.3739330  44.8902840  74.9071030   8.6505470  50.1516130
  74.8640660   8.2798380  51.0330590  75.0382040   9.5883040  50.2917950
  78.6077060  10.2065060  45.7525850  78.3668420  10.4739620  44.8656370
  79.5479700  10.3770790  45.8076710  74.7459060  11.5967720  47.2713910
  74.1519380  11.4652420  48.0103950  74.7382900  10.7605860  46.8056010
  74.3771290   8.9626100  46.2221950  73.6505350   8.3431390  46.1547900
  74.4380440   9.3566710  45.3520030  77.9816390  11.1771100  43.0071360
  78.4981410  10.5658460  42.4819620  78.6313770  11.6799880  43.4982370
  80.7211890  12.0679590  43.8340340  81.0089700  11.8133890  42.9573350
  81.2335110  11.5156950  44.4245910  72.6601290  12.2800490  39.4318710
  72.4923330  11.6471170  40.1300600  71.7935800  12.4859890  39.0812900
  74.2663990  10.9733720  36.8768850  73.7411610  11.3541750  36.1730810
  74.1908570  11.5984490  37.5978560  80.7884250  12.9895690  51.2008540
  81.7151560  12.7539960  51.2444500  80.7734680  13.8167690  50.7194570
  76.8656960  12.9216100  35.7518100  77.5975780  12.6375380  35.2041990
  77.1250630  12.6829380  36.6417480  76.0271750   9.0380830  35.7564430
  75.3980630   9.5065930  36.3050260  76.1419580   8.1930050  36.1910620
  83.4821470   3.0886490  21.9065630  83.4015520   2.1741100  21.6357340
  83.0685890   3.5853560  21.2005340  81.6139510   4.8665510  23.7874900
  80.8381610   4.3865950  24.0773470  82.2652440   4.1871160  23.6131060
  75.6305340   5.1785320  24.6650660  74.7990220   4.9234030  25.0647170
  76.2386320   5.2496090  25.4008580  75.6106600   9.2125410  24.8608680
  75.9134640   8.3223150  24.6818900  76.3550190   9.7695630  24.6330930
  72.0030300   2.7392860  24.3332750  72.5746410   1.9715060  24.3336390
  72.0031840   3.0381620  23.4239360  81.8610250  11.5583710  22.1878020
  81.2421690  12.0141210  21.6172460  82.7162030  11.7135170  21.7867720
  81.0548500   7.5422700  23.7945060  80.9856780   6.6012640  23.6334190
  81.8168360   7.6324110  24.3667630  82.7273600   6.4422950  19.5809930
  82.1090870   6.9072400  19.0172650  83.2396850   7.1350430  19.9979440
  77.5905360   5.9698820  26.2593530  77.2574740   6.5967740  26.9014600
  77.7672040   6.4960700  25.4795200  76.8024460   7.9379620  28.0742710
  77.4198460   8.6130700  27.7927160  75.9417580   8.3467600  27.9830210
  72.0956800   7.1279480  16.9549560  71.7184780   7.6166580  16.2234460
  72.3529870   7.8004760  17.5856090  82.0926490   3.5944700  19.1495190
  81.1655770   3.5282080  19.3783660  82.2451310   4.5324830  19.0350430
  77.6983130   4.1209440  21.9314920  77.2940130   3.4086690  21.4360820
  77.7846250   3.7762680  22.8202960  78.1664830   7.8077000  24.0954130
  77.8693120   7.2022470  23.4161910  79.1164650   7.8454310  23.9843490
  77.2583260   7.5458690  30.7461930  76.3611790   7.7698660  30.9935330
  77.2836130   7.6693630  29.7973330  76.0854480   4.4172010  29.3219300
  75.9462250   5.2894810  29.6906700  75.2035840   4.0744820  29.1767240
  82.4083860   9.3347880  20.6284430  82.8479770  10.0772210  20.2139820
  82.3470750   9.5774450  21.5523390  77.8834830  10.3593710  31.5304450
  77.8550260  10.7636660  30.6632880  77.7199800   9.4304070  31.3676050
  74.3987760   3.0154420  19.4321570  74.2785360   3.7416510  18.8202840
  74.0888650   2.2457330  18.9549480  72.0373130   6.1869560  25.2390210
  72.1153550   6.3218330  24.2945930  72.6514810   5.4785450  25.4318330
  73.2820760   7.8869750  21.6496390  72.8748840   8.0284340  20.7949990
  74.1733770   7.6029910  21.4467600  83.0999640  12.0361660  28.5563440
  83.6144310  11.9469670  29.3585870  82.2568720  12.3821360  28.8491350
  77.5542420  12.1015530  19.7619060  77.3784900  11.1851070  19.5486860
  76.6998160  12.4602820  20.0016860  84.3430100  11.4567270  20.6193930
  84.7987050  10.6756650  20.9332550  84.6822620  12.1674090  21.1635110
  72.0932650   7.2283730  27.7784670  72.2563690   6.7589090  26.9604040
  72.5585100   6.7207290  28.4433510  83.0783410   2.7155720  25.2671200
  82.3464530   3.2242530  25.6161300  82.6807750   1.8985700  24.9659980
  78.5902450   2.7023140  16.0613750  78.0219350   2.2541390  15.4349660
  79.2991450   3.0615920  15.5278900  73.6671630   6.6035160  29.9380480
  73.2826420   5.9628830  30.5363440  73.9783820   7.3071280  30.5075210
  79.8168770   3.4511700  25.4189100  80.1838900   2.9770270  26.1650440
  79.6273830   4.3253270  25.7597440  77.6068140   2.4920340  27.7373310
  77.3025210   3.3712320  27.9623670  78.5614600   2.5520130  27.7730750
  76.1349930   6.6981330  18.3340160  75.3612190   6.1578950  18.1738880
  76.8644560   6.1787940  17.9957920  82.2756710   5.7655750  30.0135550
  82.2094020   4.8451420  29.7593140  81.6461850   5.8631190  30.7280190
  76.1787330   6.3661710  21.9718970  76.6966000   5.5629970  21.9175860
  75.7271350   6.3040850  22.8135800  81.0656830   7.6327990  17.2446270
  81.4072530   8.3770220  16.7489590  80.2369540   7.9459110  17.6071100
  73.6631870   3.3323080  28.8844670  73.3046810   3.9976930  29.4718010
  73.3686430   2.5006630  29.2557290  76.8644990   3.7907320  31.7684220
  76.5645130   3.9364500  30.8712040  77.6356230   3.2312610  31.6757610
  82.2073440   8.5876320  29.7639350  82.2217980   7.6557280  29.5458260
  81.4998540   8.6736080  30.4029120  83.9484240   6.9543830  22.6091780
  84.3008060   6.3571960  21.9493150  83.0646570   6.6288060  22.7800030
  80.0347520   7.7141520  20.0162190  80.7218650   8.2610730  20.3969780
  79.2479940   8.2582250  20.0511800  72.1739920   3.3314340  15.5079270
  73.0434770   3.6139140  15.7915190  71.6830240   4.1450210  15.3928080
  79.3374730   4.7187550  19.6287550  79.7937510   5.5292800  19.8547740
  78.9862940   4.4010690  20.4606040  81.6407340  10.2293890  26.8579850
  82.2849560  10.4353270  27.5353270  82.0036780   9.4682290  26.4050700
  82.9139420   8.2326240  25.5757300  83.5561650   7.5319400  25.6889470
  83.4388770   9.0124680  25.3954190  72.5411170  12.5441720  16.0740900
  72.9008810  13.1431060  15.4198170  72.4003510  13.0901610  16.8475930
  72.5253030  10.8096580  30.5483300  72.6344150   9.8691320  30.4078690
  71.8733590  11.0751330  29.8997030  80.5165620   9.0812470  31.9481420
  80.1962490   8.3621710  32.4927110  79.8423980   9.7567540  32.0217480
  78.5579790   9.9272920  16.8914570  78.5489890  10.6602610  16.2759080
  77.6378150   9.6804500  16.9841530  74.1586430   5.1487810  17.6361330
  73.5514380   5.8886710  17.6456630  74.6335780   5.2387170  16.8099530
  81.5439390   9.9901160  15.5539760  81.6451370   9.7865150  14.6241740
  80.6441130   9.7359440  15.7587540  80.1857500  12.5087480  20.2487430
  80.4399000  12.4708870  19.3266800  79.2369980  12.3820810  20.2415680
  76.1691720   5.1098960  15.3849900  76.9354990   4.9980320  15.9475330
  76.2466410   4.4136930  14.7326670  74.8638480   2.5424030  16.0682790
  74.9442070   1.5951540  16.1800190  75.7558230   2.8730910  16.1743450
  75.6653190  12.6919420  23.1717330  76.4015670  12.1434880  23.4425900
  76.0494110  13.5575430  23.0323320  72.5498670   8.7592990  19.0458840
  71.6238450   9.0014130  19.0364250  73.0155100   9.5867250  18.9243590
  74.6711470  11.8765490  32.3602910  75.4724200  12.1977540  32.7738310
  74.1563290  11.5161070  33.0822820  78.7755500  11.8649730  14.9942900
  79.5684110  12.1538560  14.5424690  78.2559850  11.4341900  14.3155380
  83.5076100   7.9845360  32.3078320  82.9014260   8.0076960  31.5674070
  83.2030210   7.2528400  32.8445570  72.3909280   4.3638950  31.3038960
  72.8948300   3.7846230  31.8755190  71.6516700   4.6479180  31.8415330
  79.2932900   7.0853140  14.8585250  79.1883540   6.4705490  15.5846630
  79.1257120   6.5619030  14.0748260  79.4447220   5.7709940  30.8374480
  78.6792890   6.3394940  30.7529150  79.6263180   5.4786150  29.9442710
  82.5335630   6.1473170  15.4627240  81.9845730   6.5942470  16.1069980
  83.1554890   5.6422420  15.9864910  74.4232360   2.5068540  32.1989030
  74.4637700   2.2082410  33.1074260  75.2777860   2.9076150  32.0396550
  78.2010750   5.1064090  17.3592540  78.6227170   4.9403960  18.2023930
  78.3261590   4.2964320  16.8647680  80.7138390   4.1301700  14.6069640
  81.2344050   3.4150720  14.2410790  81.3606790   4.7687570  14.9070150
  80.0231460   5.5050580  27.9000640  80.4419570   6.3483310  27.7276880
  79.1040090   5.6422620  27.6707420  82.3595360   3.2366760  29.2838480
  82.4791570   2.6407900  30.0233320  83.2189360   3.2736450  28.8639780
  77.8738880  11.8103590  29.0158370  77.3359970  12.5349650  28.6967070
  78.1272840  11.3333930  28.2255710  80.7301090  13.0454800  29.2745020
  80.6559790  13.9489940  29.5817390  79.8279930  12.7266700  29.2467090
  81.2786420  12.2113310  16.8971380  82.1737210  12.5498280  16.9190140
  81.3104050  11.4892720  16.2695660  74.9182580   7.5840360  15.1258380
  75.3557450   8.1270030  15.7815960  75.4030310   6.7587310  15.1354720
  72.1328380  10.3729390  22.5778640  72.4631390   9.5050450  22.3457280
  72.5619380  10.5787910  23.4083600  76.7290300   8.7038400  20.2380610
  76.4285840   8.5803370  21.1384520  76.6227790   7.8446990  19.8296340
  72.6218590  11.2399980  25.3160270  72.1849580  11.4200780  26.1484420
  73.1896270  11.9974600  25.1741990  72.4543020   3.7520210  21.6749150
  71.7991860   3.4831850  21.0308850  73.2920970   3.6424690  21.2251130
  73.4918950   4.1372780  26.2152490  73.8591990   4.0500180  27.0948510
  72.9229770   3.3739330  26.1159350  74.9071030   8.6505470  31.3772640
  74.8640660   8.2798380  32.2587100  75.0382040   9.5883040  31.5174460
  78.6077060  10.2065060  26.9782360  78.3668420  10.4739620  26.0912880
  79.5479700  10.3770790  27.0333220  74.7459060  11.5967720  28.4970420
  74.1519380  11.4652420  29.2360460  74.7382900  10.7605860  28.0312520
  74.3771290   8.9626100  27.4478460  73.6505350   8.3431390  27.3804410
  74.4380440   9.3566710  26.5776540  77.9816390  11.1771100  24.2327870
  78.4981410  10.5658460  23.7076130  78.6313770  11.6799880  24.7238880
  80.7211890  12.0679590  25.0596850  81.0089700  11.8133890  24.1829860
  81.2335110  11.5156950  25.6502420  72.6601290  12.2800490  20.6575220
  72.4923330  11.6471170  21.3557110  71.7935800  12.4859890  20.3069410
  74.2663990  10.9733720  18.1025360  73.7411610  11.3541750  17.3987320
  74.1908570  11.5984490  18.8235070  80.7884250  12.9895690  32.4265050
  81.7151560  12.7539960  32.4701010  80.7734680  13.8167690  31.9451080
  76.8656960  12.9216100  16.9774610  77.5975780  12.6375380  16.4298500
  77.1250630  12.6829380  17.8673990  76.0271750   9.0380830  16.9820940
  75.3980630   9.5065930  17.5306770  76.1419580   8.1930050  17.4167130
  83.4821470   3.0886490   3.1322140  83.4015520   2.1741100   2.8613850
  83.0685890   3.5853560   2.4261850  81.6139510   4.8665510   5.0131410
  80.8381610   4.3865950   5.3029980  82.2652440   4.1871160   4.8387570
  75.6305340   5.1785320   5.8907170  74.7990220   4.9234030   6.2903680
  76.2386320   5.2496090   6.6265090  75.6106600   9.2125410   6.0865190
  75.9134640   8.3223150   5.9075410  76.3550190   9.7695630   5.8587440
  72.0030300   2.7392860   5.5589260  72.5746410   1.9715060   5.5592900
  72.0031840   3.0381620   4.6495870  81.8610250  11.5583710   3.4134530
  81.2421690  12.0141210   2.8428970  82.7162030  11.7135170   3.0124230
  81.0548500   7.5422700   5.0201570  80.9856780   6.6012640   4.8590700
  81.8168360   7.6324110   5.5924140  77.5905360   5.9698820   7.4850040
  77.2574740   6.5967740   8.1271110  77.7672040   6.4960700   6.7051710
  76.8024460   7.9379620   9.2999220  77.4198460   8.6130700   9.0183670
  75.9417580   8.3467600   9.2086720  77.6983130   4.1209440   3.1571430
  77.2940130   3.4086690   2.6617330  77.7846250   3.7762680   4.0459470
  78.1664830   7.8077000   5.3210640  77.8693120   7.2022470   4.6418420
  79.1164650   7.8454310   5.2100000  77.2583260   7.5458690  11.9718440
  76.3611790   7.7698660  12.2191840  77.2836130   7.6693630  11.0229840
  76.0854480   4.4172010  10.5475810  75.9462250   5.2894810  10.9163210
  75.2035840   4.0744820  10.4023750  82.4083860   9.3347880   1.8540940
  82.8479770  10.0772210   1.4396330  82.3470750   9.5774450   2.7779900
  77.8834830  10.3593710  12.7560960  77.8550260  10.7636660  11.8889390
  77.7199800   9.4304070  12.5932560  72.0373130   6.1869560   6.4646720
  72.1153550   6.3218330   5.5202440  72.6514810   5.4785450   6.6574840
  73.2820760   7.8869750   2.8752900  72.8748840   8.0284340   2.0206500
  74.1733770   7.6029910   2.6724110  83.0999640  12.0361660   9.7819950
  83.6144310  11.9469670  10.5842380  82.2568720  12.3821360  10.0747860
  84.3430100  11.4567270   1.8450440  84.7987050  10.6756650   2.1589060
  84.6822620  12.1674090   2.3891620  72.0932650   7.2283730   9.0041180
  72.2563690   6.7589090   8.1860550  72.5585100   6.7207290   9.6690020
  83.0783410   2.7155720   6.4927710  82.3464530   3.2242530   6.8417810
  82.6807750   1.8985700   6.1916490  73.6671630   6.6035160  11.1636990
  73.2826420   5.9628830  11.7619950  73.9783820   7.3071280  11.7331720
  79.8168770   3.4511700   6.6445610  80.1838900   2.9770270   7.3906950
  79.6273830   4.3253270   6.9853950  77.6068140   2.4920340   8.9629820
  77.3025210   3.3712320   9.1880180  78.5614600   2.5520130   8.9987260
  82.2756710   5.7655750  11.2392060  82.2094020   4.8451420  10.9849650
  81.6461850   5.8631190  11.9536700  76.1787330   6.3661710   3.1975480
  76.6966000   5.5629970   3.1432370  75.7271350   6.3040850   4.0392310
  73.6631870   3.3323080  10.1101180  73.3046810   3.9976930  10.6974520
  73.3686430   2.5006630  10.4813800  76.8644990   3.7907320  12.9940730
  76.5645130   3.9364500  12.0968550  77.6356230   3.2312610  12.9014120
  82.2073440   8.5876320  10.9895860  82.2217980   7.6557280  10.7714770
  81.4998540   8.6736080  11.6285630  83.9484240   6.9543830   3.8348290
  84.3008060   6.3571960   3.1749660  83.0646570   6.6288060   4.0056540
  81.6407340  10.2293890   8.0836360  82.2849560  10.4353270   8.7609780
  82.0036780   9.4682290   7.6307210  82.9139420   8.2326240   6.8013810
  83.5561650   7.5319400   6.9145980  83.4388770   9.0124680   6.6210700
  72.5253030  10.8096580  11.7739810  72.6344150   9.8691320  11.6335200
  71.8733590  11.0751330  11.1253540  80.5165620   9.0812470  13.1737930
  80.1962490   8.3621710  13.7183620  79.8423980   9.7567540  13.2473990
  75.6653190  12.6919420   4.3973840  76.4015670  12.1434880   4.6682410
  76.0494110  13.5575430   4.2579830  74.6711470  11.8765490  13.5859420
  75.4724200  12.1977540  13.9994820  74.1563290  11.5161070  14.3079330
  83.5076100   7.9845360  13.5334830  82.9014260   8.0076960  12.7930580
  83.2030210   7.2528400  14.0702080  72.3909280   4.3638950  12.5295470
  72.8948300   3.7846230  13.1011700  71.6516700   4.6479180  13.0671840
  79.4447220   5.7709940  12.0630990  78.6792890   6.3394940  11.9785660
  79.6263180   5.4786150  11.1699220  74.4232360   2.5068540  13.4245540
  74.4637700   2.2082410  14.3330770  75.2777860   2.9076150  13.2653060
  80.0231460   5.5050580   9.1257150  80.4419570   6.3483310   8.9533390
  79.1040090   5.6422620   8.8963930  82.3595360   3.2366760  10.5094990
  82.4791570   2.6407900  11.2489830  83.2189360   3.2736450  10.0896290
  77.8738880  11.8103590  10.2414880  77.3359970  12.5349650   9.9223580
  78.1272840  11.3333930   9.4512220  80.7301090  13.0454800  10.5001530
  80.6559790  13.9489940  10.8073900  79.8279930  12.7266700  10.4723600
  72.1328380  10.3729390   3.8035150  72.4631390   9.5050450   3.5713790
  72.5619380  10.5787910   4.6340110  72.6218590  11.2399980   6.5416780
  72.1849580  11.4200780   7.3740930  73.1896270  11.9974600   6.3998500
  72.4543020   3.7520210   2.9005660  71.7991860   3.4831850   2.2565360
  73.2920970   3.6424690   2.4507640  73.4918950   4.1372780   7.4409000
  73.8591990   4.0500180   8.3205020  72.9229770   3.3739330   7.3415860
  74.9071030   8.6505470  12.6029150  74.8640660   8.2798380  13.4843610
  75.0382040   9.5883040  12.7430970  78.6077060  10.2065060   8.2038870
  78.3668420  10.4739620   7.3169390  79.5479700  10.3770790   8.2589730
  74.7459060  11.5967720   9.7226930  74.1519380  11.4652420  10.4616970
  74.7382900  10.7605860   9.2569030  74.3771290   8.9626100   8.6734970
  73.6505350   8.3431390   8.6060920  74.4380440   9.3566710   7.8033050
  77.9816390  11.1771100   5.4584380  78.4981410  10.5658460   4.9332640
  78.6313770  11.6799880   5.9495390  80.7211890  12.0679590   6.2853360
  81.0089700  11.8133890   5.4086370  81.2335110  11.5156950   6.8758930
  72.6601290  12.2800490   1.8831730  72.4923330  11.6471170   2.5813620
  71.7935800  12.4859890   1.5325920  80.7884250  12.9895690  13.6521560
  81.7151560  12.7539960  13.6957520  80.7734680  13.8167690  13.1707590
  64.7077980  78.1860450  78.2296100  64.6272030  77.2715060  77.9587810
  64.2942400  78.6827520  77.5235810  62.8396020  79.9639470  80.1105370
  62.0638120  79.4839910  80.4003940  63.4908950  79.2845120  79.9361530
  56.8561850  80.2759280  80.9881130  56.0246730  80.0207990  81.3877640
  57.4642830  80.3470050  81.7239050  55.2653800  75.2361170  74.7723520
  54.3770500  75.5777140  74.6703400  55.5494990  75.0361490  73.8804350
  53.2286810  77.8366820  80.6563220  53.8002920  77.0689020  80.6566860
  53.2288350  78.1355580  79.7469830  54.4711680  73.2451180  82.4432150
  54.2914520  72.3476930  82.7234910  54.0691760  73.7923050  83.1179100
  63.3110180  75.4467040  80.3444460  63.6875000  74.5738920  80.2318130
  63.2129690  75.7825740  79.4534900  57.4415190  73.8192670  75.8061900
  57.5481940  74.7196400  76.1130660  56.5307550  73.7710640  75.5156550
  67.0934300  72.9417480  77.2772800  67.9143920  72.4514050  77.3198280
  67.1268380  73.5315140  78.0304640  55.0898350  75.7411680  81.0514490
  55.7708460  76.0050050  81.6701890  54.7746400  74.9012550  81.3852500
  59.2822920  76.7879040  80.1387080  59.7901140  77.2860010  80.7792100
  59.8136160  76.0114240  79.9626440  67.3295780  74.8817860  80.0500340
  66.6251350  75.1702750  80.6303450  67.6907940  75.6917970  79.6899900
  57.2474350  73.1387560  82.4120950  57.5891160  73.9829610  82.1174820
  56.3090160  73.2871300  82.5286290  70.3982700  74.3272650  80.4409550
  69.4507610  74.3611630  80.5724980  70.7232690  75.1411600  80.8258910
  60.9302240  70.6269830  78.7365540  61.2377220  70.0716720  78.0201040
  60.0002940  70.7614290  78.5538530  63.3183000  78.6918660  75.4725660
  62.3912280  78.6256040  75.7014130  63.4707820  79.6298790  75.3580900
  63.3052080  74.9635660  72.4692820  62.3655750  75.1249620  72.5545280
  63.6235340  75.6821340  71.9228810  69.8264840  79.6454180  82.4471850
  68.9983470  79.7147270  81.9721980  70.4215320  80.2308490  81.9787680
  67.3480290  80.2538960  75.9760910  66.7292710  79.9158510  75.3287210
  67.3304740  79.6098720  76.6840100  58.9239640  79.2183400  78.2545390
  58.5196640  78.5060650  77.7591290  59.0102760  78.8736640  79.1433430
  57.6368260  75.9926610  82.0344430  58.1882850  76.1021950  81.2597680
  58.1511770  76.3664210  82.7499660  65.5244990  79.4925770  72.9833660
  65.9638270  78.6548200  72.8371480  66.2373410  80.1255170  73.0697800
  69.1062130  70.7468580  71.2974700  68.7934790  70.8395410  72.1973770
  69.8674600  71.3249610  71.2472130  55.6244270  78.1128380  75.7552040
  55.5041870  78.8390470  75.1433310  55.3145160  77.3431290  75.2779950
  58.0907930  71.4563450  79.1375710  57.6476080  72.2372990  78.8060230
  58.6492920  71.7793340  79.8446650  61.2066750  71.0774150  74.0181540
  60.5820930  71.0734020  74.7434850  61.1196870  70.2105110  73.6217510
  60.1283830  72.0010780  80.9965310  60.4256160  72.9073610  80.9157330
  60.6769390  71.5129560  80.3824880  57.8822150  76.5797020  76.8656960
  57.6563070  76.3634190  77.7703580  57.1014680  77.0125480  76.5202930
  65.1119910  76.5860390  75.4647610  64.5128800  77.3096190  75.2811230
  65.6599520  76.5237170  74.6824060  63.7184780  75.2223930  77.4950890
  64.1114350  75.5396130  76.6819580  64.0801630  74.3435810  77.6095410
  52.7548950  71.8124730  79.7181090  52.4662000  72.3827590  80.4306070
  53.4994710  71.3329180  80.0812320  52.9419180  75.7544850  70.9283810
  52.8593850  76.6975610  71.0698800  52.5902240  75.6119760  70.0496160
  64.3039920  77.8129680  81.5901670  63.5721040  78.3216490  81.9391770
  63.9064260  76.9959660  81.2890450  60.7417310  74.4883880  79.9954160
  60.7453370  74.0473830  79.1458700  61.6368430  74.8101210  80.1025980
  56.5919690  74.3710370  78.9548370  56.2519740  74.8485600  79.7115420
  55.8297010  73.9175490  78.5949470  60.8037460  75.4895960  72.9860920
  60.9250280  75.4482440  73.9346740  60.4185970  76.3520110  72.8307650
  64.7665830  73.2663360  81.0024610  64.7838570  73.7172010  81.8466460
  64.5181410  72.3669000  81.2158050  59.8158960  77.7997100  72.3844220
  59.2475860  77.3515350  71.7580130  60.5247960  78.1589880  71.8509370
  61.0425280  78.5485660  81.7419570  61.4095410  78.0744230  82.4880910
  60.8530340  79.4227230  82.0827910  53.9065770  73.2929350  77.8713040
  53.6212690  72.9285020  78.7091660  53.8444630  72.5609810  77.2576180
  68.1194420  80.7920650  80.4497020  68.8393540  81.2875940  80.0593130
  67.9176240  80.1138540  79.8050890  63.5804360  72.1858610  74.5926410
  62.7668970  71.6871780  74.5171720  63.3866310  73.0256860  74.1762760
  66.2952750  76.5578260  72.8888570  67.1832370  76.8695490  72.7139910
  66.2657840  75.6850510  72.4969150  68.5667020  77.8690100  72.3568430
  68.4830740  78.3004320  71.5064870  69.2861210  78.3288450  72.7895250
  53.3996430  78.4288300  71.8309740  54.2691280  78.7113100  72.1145660
  52.9086750  79.2424170  71.7158550  60.5631240  79.8161510  75.9518020
  61.0194020  80.6266760  76.1778210  60.2119450  79.4984650  76.7836510
  56.4643020  70.1599160  76.4240540  56.3357650  70.1517060  77.3725460
  55.6405040  70.4982250  76.0731550  55.3842940  80.2461770  73.9591800
  54.7770890  80.9860670  73.9687100  55.8592290  80.3361130  73.1330000
  68.3237760  73.3669530  74.4436250  67.6950920  73.4715200  73.7294480
  67.8289680  73.5866310  75.2330130  60.2921790  75.6455480  75.8594130
  59.5837940  76.1141820  76.3007740  60.5766270  74.9877490  76.4939320
  64.3237220  72.3706140  77.2989920  64.2005000  72.3892270  76.3499430
  65.2721780  72.4185080  77.4188320  58.4956810  73.9540560  73.2344840
  59.3447340  74.3910710  73.1685030  58.1288080  74.2660820  74.0616900
  67.4166590  78.5253320  78.1476410  66.4756730  78.5403550  78.3224100
  67.7310660  77.7389280  78.5936710  57.3948230  80.2072920  71.7080370
  58.1611500  80.0954280  72.2705800  57.4722920  79.5110890  71.0557140
  56.0894990  77.6397990  72.3913260  56.1698580  76.6925500  72.5030660
  56.9814740  77.9704870  72.4973920  59.4267260  80.2038050  73.6823010
  59.8483680  80.0377920  74.5254400  59.5518100  79.3938280  73.1878150
  61.9394900  79.2275660  70.9300110  62.4600560  78.5124680  70.5641260
  62.5863300  79.8661530  71.2300620  58.3226160  76.2771280  70.6281170
  58.1215220  75.4138640  70.9894510  58.1518210  76.1904640  69.6902770
  65.8014470  71.0879510  73.1568050  66.0816760  70.2447410  73.5127470
  65.0280200  71.3202620  73.6706800  57.1208960  73.3771900  70.6159050
  57.4234860  73.3839330  69.7078200  57.8603550  73.0269760  71.1126710
  60.3393890  72.3206520  71.6015250  59.9915890  71.6430510  71.0217700
  60.5406660  71.8596030  72.4158640  70.1795190  80.3256240  73.7671960
  70.9414100  80.8952890  73.8731650  70.1949560  79.7583440  74.5380270
  53.6799530  78.8494170  77.9979620  53.0248370  78.5805810  77.3539320
  54.5177480  78.7398650  77.5481600  66.6289970  73.6435460  72.2198110
  67.0474850  73.4566440  71.3794770  66.3226030  72.7914510  72.5301040
  70.1279700  78.5559600  75.9173910  69.7523300  77.7887530  75.4855200
  69.3982820  78.9382300  76.4048840  52.8937610  76.0593100  73.9404950
  51.9901690  76.3223300  73.7656610  53.3778230  76.3304270  73.1604910
  69.4030660  76.7817090  79.2181150  69.9268140  76.2879740  78.5871320
  69.9890080  76.9167450  79.9628720  69.5820380  76.8656960  82.7400700
  68.6323090  76.8320500  82.8545690  69.7633390  77.7757070  82.5050470
  55.4364820  75.1158640  71.8499330  56.1456520  74.6941860  71.3646610
  54.7204760  75.1833870  71.2182680  55.0838980  71.1697970  70.8901980
  55.8067110  71.7106910  71.2083200  55.3563500  70.8961390  70.0143520
  68.8930630  76.0390440  75.1573560  69.3889750  75.8061310  75.9422440
  68.6946700  75.2002280  74.7411200  54.7731170  70.4204160  80.7924600
  55.4207360  69.8701540  80.3519760  55.1933010  70.6747310  81.6140410
  70.3217790  74.6751390  77.6911240  70.2117070  74.5207430  78.6293510
  71.0825380  74.1472330  77.4486650  71.2108060  72.5059310  70.9317380
  72.1357370  72.3740490  70.7235670  71.1883850  72.5852130  71.8853830
  71.2846550  73.2769970  73.5574090  70.4898050  73.2115090  74.0867000
  71.4889830  74.2120610  73.5459440  63.1645410  70.9043750  81.9623830
  62.3817200  71.3789250  82.2420590  62.8708340  69.9998580  81.8537010
  67.7166480  71.6066850  80.0072920  68.1574570  71.5511950  79.1594520
  67.4474070  72.5224860  80.0783100  69.5805050  71.2382090  78.0181740
  69.5193450  70.2943310  77.8712760  70.3597080  71.3462180  78.5635200
  54.5085820  71.2091230  74.4837550  55.2665180  71.3220110  73.9101580
  54.0462990  72.0460430  74.4380980  61.0499630  73.3230500  77.4739860
  60.2374140  72.9487390  77.1335740  61.5541270  72.5675580  77.7761050
  65.5524610  69.9872950  78.7122930  66.1553980  70.5593160  79.1871450
  64.8117600  70.5512390  78.4896830  68.6959210  70.3894510  73.9863210
  68.8909840  71.2877960  74.2530640  67.9089080  70.1581590  74.4796160
  56.8810970  71.7355280  73.0239520  57.4103730  70.9485080  72.8947470
  57.5139290  72.4146470  73.2575050  59.0748810  71.4730420  76.0784910
  58.4451550  70.7717730  76.2455040  58.5353950  72.2334550  75.8618070
  64.7077980  78.1860450  59.4552610  64.6272030  77.2715060  59.1844320
  64.2942400  78.6827520  58.7492320  62.8396020  79.9639470  61.3361880
  62.0638120  79.4839910  61.6260450  63.4908950  79.2845120  61.1618040
  56.8561850  80.2759280  62.2137640  56.0246730  80.0207990  62.6134150
  57.4642830  80.3470050  62.9495560  55.2653800  75.2361170  55.9980030
  54.3770500  75.5777140  55.8959910  55.5494990  75.0361490  55.1060860
  53.2286810  77.8366820  61.8819730  53.8002920  77.0689020  61.8823370
  53.2288350  78.1355580  60.9726340  54.4711680  73.2451180  63.6688660
  54.2914520  72.3476930  63.9491420  54.0691760  73.7923050  64.3435610
  63.3110180  75.4467040  61.5700970  63.6875000  74.5738920  61.4574640
  63.2129690  75.7825740  60.6791410  57.4415190  73.8192670  57.0318410
  57.5481940  74.7196400  57.3387170  56.5307550  73.7710640  56.7413060
  67.0934300  72.9417480  58.5029310  67.9143920  72.4514050  58.5454790
  67.1268380  73.5315140  59.2561150  55.0898350  75.7411680  62.2771000
  55.7708460  76.0050050  62.8958400  54.7746400  74.9012550  62.6109010
  59.2822920  76.7879040  61.3643590  59.7901140  77.2860010  62.0048610
  59.8136160  76.0114240  61.1882950  71.3833850  74.9584230  65.0672940
  70.6786020  75.3465940  64.5488050  71.6491770  75.6534520  65.6693870
  57.5659020  71.4277600  65.6307010  57.5677460  71.9449990  64.8252910
  56.7363330  70.9507780  65.6076940  67.3295780  74.8817860  61.2756850
  66.6251350  75.1702750  61.8559960  67.6907940  75.6917970  60.9156410
  57.2474350  73.1387560  63.6377460  57.5891160  73.9829610  63.3431330
  56.3090160  73.2871300  63.7542800  70.3982700  74.3272650  61.6666060
  69.4507610  74.3611630  61.7981490  70.7232690  75.1411600  62.0515420
  60.9302240  70.6269830  59.9622050  61.2377220  70.0716720  59.2457550
  60.0002940  70.7614290  59.7795040  63.3183000  78.6918660  56.6982170
  62.3912280  78.6256040  56.9270640  63.4707820  79.6298790  56.5837410
  63.3052080  74.9635660  53.6949330  62.3655750  75.1249620  53.7801790
  63.6235340  75.6821340  53.1485320  69.8264840  79.6454180  63.6728360
  68.9983470  79.7147270  63.1978490  70.4215320  80.2308490  63.2044190
  67.3480290  80.2538960  57.2017420  66.7292710  79.9158510  56.5543720
  67.3304740  79.6098720  57.9096610  66.7906850  76.4323500  64.6183230
  66.3778030  77.2577210  64.8723220  66.0582800  75.8468540  64.4259590
  58.9239640  79.2183400  59.4801900  58.5196640  78.5060650  58.9847800
  59.0102760  78.8736640  60.3689940  57.6368260  75.9926610  63.2600940
  58.1882850  76.1021950  62.4854190  58.1511770  76.3664210  63.9756170
  65.5244990  79.4925770  54.2090170  65.9638270  78.6548200  54.0627990
  66.2373410  80.1255170  54.2954310  57.3110990  79.5145970  66.8706280
  57.1718760  80.3868770  67.2393680  56.4292350  79.1718780  66.7254220
  69.1062130  70.7468580  52.5231210  68.7934790  70.8395410  53.4230280
  69.8674600  71.3249610  52.4728640  55.6244270  78.1128380  56.9808550
  55.5041870  78.8390470  56.3689820  55.3145160  77.3431290  56.5036460
  70.3163420  75.4840080  68.5005350  69.7007690  75.9919750  67.9720810
  69.9959840  74.5838410  68.4431290  58.0907930  71.4563450  60.3632220
  57.6476080  72.2372990  60.0316740  58.6492920  71.7793340  61.0703160
  62.3777740  74.3231970  65.9667540  61.9157110  74.5314990  66.7787480
  61.9755850  73.5091320  65.6638210  67.3782250  75.5440920  67.0964200
  66.5275840  75.2446670  67.4173270  67.2184040  75.7882930  66.1848020
  64.4731960  77.0442670  69.1962990  64.7985370  76.2106420  68.8565220
  65.2612290  77.5671190  69.3441320  61.2066750  71.0774150  55.2438050
  60.5820930  71.0734020  55.9691360  61.1196870  70.2105110  54.8474020
  60.1283830  72.0010780  62.2221820  60.4256160  72.9073610  62.1413840
  60.6769390  71.5129560  61.6081390  57.8822150  76.5797020  58.0913470
  57.6563070  76.3634190  58.9960090  57.1014680  77.0125480  57.7459440
  65.1119910  76.5860390  56.6904120  64.5128800  77.3096190  56.5067740
  65.6599520  76.5237170  55.9080570  60.3221360  77.4782600  68.7573740
  60.2264960  76.5377330  68.6074140  61.1653340  77.6997670  68.3621810
  63.7184780  75.2223930  58.7207400  64.1114350  75.5396130  57.9076090
  64.0801630  74.3435810  58.8351920  55.4531900  73.8896270  66.9107520
  55.0595290  74.7371480  67.1180300  54.7650300  73.2522640  67.1016160
  62.0276950  73.9731240  69.9804260  61.3375270  73.7803440  70.6150350
  62.7709250  74.2565880  70.5128560  52.7548950  71.8124730  60.9437600
  52.4662000  72.3827590  61.6562580  53.4994710  71.3329180  61.3068830
  52.9419180  75.7544850  52.1540320  52.8593850  76.6975610  52.2955310
  52.5902240  75.6119760  51.2752670  64.3039920  77.8129680  62.8158180
  63.5721040  78.3216490  63.1648280  63.9064260  76.9959660  62.5146960
  60.7417310  74.4883880  61.2210670  60.7453370  74.0473830  60.3715210
  61.6368430  74.8101210  61.3282490  56.5919690  74.3710370  60.1804880
  56.2519740  74.8485600  60.9371930  55.8297010  73.9175490  59.8205980
  60.8037460  75.4895960  54.2117430  60.9250280  75.4482440  55.1603250
  60.4185970  76.3520110  54.0564160  64.7665830  73.2663360  62.2281120
  64.7838570  73.7172010  63.0722970  64.5181410  72.3669000  62.4414560
  59.8158960  77.7997100  53.6100730  59.2475860  77.3515350  52.9836640
  60.5247960  78.1589880  53.0765880  68.1936580  70.6795540  68.0667500
  68.5182350  69.9485200  68.5925480  68.2293090  70.3609180  67.1648490
  61.0425280  78.5485660  62.9676080  61.4095410  78.0744230  63.7137420
  60.8530340  79.4227230  63.3084420  53.9065770  73.2929350  59.0969550
  53.6212690  72.9285020  59.9348170  53.8444630  72.5609810  58.4832690
  58.8324650  77.5894300  65.2860290  58.5281720  78.4686280  65.5110650
  59.7871110  77.6494090  65.3217730  68.1194420  80.7920650  61.6753530
  68.8393540  81.2875940  61.2849640  67.9176240  80.1138540  61.0307400
  63.5804360  72.1858610  55.8182920  62.7668970  71.6871780  55.7428230
  63.3866310  73.0256860  55.4019270  63.5013220  80.8629710  67.5622530
  63.4350530  79.9425380  67.3080120  62.8718360  80.9605150  68.2767170
  66.2952750  76.5578260  54.1145080  67.1832370  76.8695490  53.9396420
  66.2657840  75.6850510  53.7225660  54.8888380  78.4297040  66.4331650
  54.5303320  79.0950890  67.0204990  54.5942940  77.5980590  66.8044270
  58.0901500  78.8881280  69.3171200  57.7901640  79.0338460  68.4199020
  58.8612740  78.3286570  69.2244590  68.5667020  77.8690100  53.5824940
  68.4830740  78.3004320  52.7321380  69.2861210  78.3288450  54.0151760
  69.6441160  80.3257620  66.6594910  68.9189350  80.9186400  66.4624300
  70.1716620  80.3181160  65.8608280  53.3996430  78.4288300  53.0566250
  54.2691280  78.7113100  53.3402170  52.9086750  79.2424170  52.9415060
  60.5631240  79.8161510  57.1774530  61.0194020  80.6266760  57.4034720
  60.2119450  79.4984650  58.0093020  56.4643020  70.1599160  57.6497050
  56.3357650  70.1517060  58.5981970  55.6405040  70.4982250  57.2988060
  53.4636950  71.9190280  67.1103750  52.7495470  72.1187200  67.7156360
  53.8831990  71.1429850  67.4818550  55.3842940  80.2461770  55.1848310
  54.7770890  80.9860670  55.1943610  55.8592290  80.3361130  54.3586510
  64.9575730  74.4112590  64.8605200  65.3256550  73.5907800  65.1884770
  64.0973930  74.4714480  65.2760850  68.3237760  73.3669530  55.6692760
  67.6950920  73.4715200  54.9550990  67.8289680  73.5866310  56.4586640
  60.2921790  75.6455480  57.0850640  59.5837940  76.1141820  57.5264250
  60.5766270  74.9877490  57.7195830  61.9177720  77.0652180  65.0843170
  62.4162970  77.5398000  65.7495020  62.0600670  76.1415700  65.2913200
  64.3237220  72.3706140  58.5246430  64.2005000  72.3892270  57.5755940
  65.2721780  72.4185080  58.6444830  58.4956810  73.9540560  54.4601350
  59.3447340  74.3910710  54.3941540  58.1288080  74.2660820  55.2873410
  69.1244580  73.2820140  65.9271560  68.6218180  74.0225540  66.2665370
  69.9401240  73.6704140  65.6108350  67.4166590  78.5253320  59.3732920
  66.4756730  78.5403550  59.5480610  67.7310660  77.7389280  59.8193220
  57.3948230  80.2072920  52.9336880  58.1611500  80.0954280  53.4962310
  57.4722920  79.5110890  52.2813650  56.0894990  77.6397990  53.6169770
  56.1698580  76.6925500  53.7287170  56.9814740  77.9704870  53.7230430
  53.6165790  79.4612910  68.8525940  54.1204810  78.8820190  69.4242170
  52.8773210  79.7453140  69.3902310  55.6488870  77.6042500  69.7476010
  55.6894210  77.3056370  70.6561240  56.5034370  78.0050110  69.5883530
  59.4267260  80.2038050  54.9079520  59.8483680  80.0377920  55.7510910
  59.5518100  79.3938280  54.4134660  57.5894680  76.1834600  67.7150500
  57.0591140  75.6925550  67.0873840  58.2582750  76.6118800  67.1808430
  61.9394900  79.2275660  52.1556620  62.4600560  78.5124680  51.7897770
  62.5863300  79.8661530  52.4557130  66.4872740  80.6504060  67.4791690
  66.9013760  80.8049140  68.3282110  65.5523740  80.7759280  67.6417470
  66.9594910  77.9900220  69.4830840  67.5415680  77.2352540  69.3951320
  67.1356680  78.5207660  68.7062320  58.0766980  73.1496970  67.7947790
  57.9823850  72.5317720  67.0698660  57.4964370  73.8763260  67.5677700
  60.8428420  71.7070210  64.8275180  60.3945720  71.7294470  63.9820730
  60.2093620  71.3089230  65.4245480  63.5851870  78.3340720  66.8325460
  63.7048080  77.7381860  67.5720300  64.4445870  78.3710410  66.4126760
  65.9239770  78.8877910  65.4087970  65.3974990  79.4120530  64.8053110
  66.2671110  79.5205300  66.0397700  58.3226160  76.2771280  51.8537680
  58.1215220  75.4138640  52.2151020  58.1518210  76.1904640  50.9159280
  60.3520640  74.8762070  68.0901280  60.9420330  74.5677920  68.7779100
  59.5340880  74.4041820  68.2461180  65.1714070  74.4927880  68.3234300
  64.4829590  73.8309420  68.2584290  65.8920090  74.0466150  68.7682760
  65.8014470  71.0879510  54.3824560  66.0816760  70.2447410  54.7383980
  65.0280200  71.3202620  54.8963310  57.1208960  73.3771900  51.8415560
  57.4234860  73.3839330  50.9334710  57.8603550  73.0269760  52.3383220
  60.3393890  72.3206520  52.8271760  59.9915890  71.6430510  52.2474210
  60.5406660  71.8596030  53.6415150  70.1795190  80.3256240  54.9928470
  70.9414100  80.8952890  55.0988160  70.1949560  79.7583440  55.7636780
  53.6799530  78.8494170  59.2236130  53.0248370  78.5805810  58.5795830
  54.5177480  78.7398650  58.7738110  66.6289970  73.6435460  53.4454620
  67.0474850  73.4566440  52.6051280  66.3226030  72.7914510  53.7557550
  70.1279700  78.5559600  57.1430420  69.7523300  77.7887530  56.7111710
  69.3982820  78.9382300  57.6305350  54.7175460  79.2346740  63.7639470
  55.0848500  79.1474140  64.6435490  54.1486280  78.4713290  63.6646330
  69.5179320  77.7031120  66.7769940  69.2865410  77.4743870  65.8767890
  69.7783870  78.6230670  66.7314830  54.2691460  76.1455830  67.6697890
  53.3747510  76.1122590  68.0091600  54.8089010  76.3442620  68.4349140
  67.9567390  72.9287550  69.5549640  68.8337570  72.9370950  69.9383640
  67.9688230  72.1918390  68.9441990  52.8937610  76.0593100  55.1661460
  51.9901690  76.3223300  54.9913120  53.3778230  76.3304270  54.3861420
  69.4030660  76.7817090  60.4437660  69.9268140  76.2879740  59.8127830
  69.9890080  76.9167450  61.1885230  69.5820380  76.8656960  63.9657210
  68.6323090  76.8320500  64.0802200  69.7633390  77.7757070  63.7306980
  55.4364820  75.1158640  53.0755840  56.1456520  74.6941860  52.5903120
  54.7204760  75.1833870  52.4439190  55.0838980  71.1697970  52.1158490
  55.8067110  71.7106910  52.4339710  55.3563500  70.8961390  51.2400030
  68.8930630  76.0390440  56.3830070  69.3889750  75.8061310  57.1678950
  68.6946700  75.2002280  55.9667710  54.7731170  70.4204160  62.0181110
  55.4207360  69.8701540  61.5776270  55.1933010  70.6747310  62.8396920
  70.3217790  74.6751390  58.9167750  70.2117070  74.5207430  59.8550020
  71.0825380  74.1472330  58.6743160  68.6683510  70.6145520  65.3750750
  69.3055730  71.2279660  65.7409940  68.8158400  70.6506180  64.4299980
  71.2108060  72.5059310  52.1573890  72.1357370  72.3740490  51.9492180
  71.1883850  72.5852130  53.1110340  71.2846550  73.2769970  54.7830600
  70.4898050  73.2115090  55.3123510  71.4889830  74.2120610  54.7715950
  54.5263170  70.5759830  64.7606430  54.1777990  71.0323650  65.5264610
  54.1950870  69.6816960  64.8428860  62.0387990  71.7671710  68.2825850
  61.9776880  72.3593540  69.0321260  62.9788370  71.6597670  68.1376110
  64.6762550  71.4241770  67.9218140  65.2902960  71.7421060  67.2599220
  65.2212110  70.9390360  68.5414000  55.1983810  70.1036030  68.0357200
  55.7466800  69.9224080  67.2723310  55.2639120  69.3130140  68.5713510
  65.4170590  69.9873910  64.2487430  64.5430430  70.3209020  64.0460360
  65.3081340  69.5147090  65.0739300  66.3242570  72.1944780  65.6329150
  65.9955930  71.3796540  65.2530880  67.2724870  72.1514590  65.5094840
  63.1645410  70.9043750  63.1880340  62.3817200  71.3789250  63.4677100
  62.8708340  69.9998580  63.0793520  67.7166480  71.6066850  61.2329430
  68.1574570  71.5511950  60.3851030  67.4474070  72.5224860  61.3039610
  69.5805050  71.2382090  59.2438250  69.5193450  70.2943310  59.0969270
  70.3597080  71.3462180  59.7891710  54.5085820  71.2091230  55.7094060
  55.2665180  71.3220110  55.1358090  54.0462990  72.0460430  55.6637490
  61.0499630  73.3230500  58.6996370  60.2374140  72.9487390  58.3592250
  61.5541270  72.5675580  59.0017560  65.5524610  69.9872950  59.9379440
  66.1553980  70.5593160  60.4127960  64.8117600  70.5512390  59.7153340
  68.6959210  70.3894510  55.2119720  68.8909840  71.2877960  55.4787150
  67.9089080  70.1581590  55.7052670  56.8810970  71.7355280  54.2496030
  57.4103730  70.9485080  54.1203980  57.5139290  72.4146470  54.4831560
  59.0748810  71.4730420  57.3041420  58.4451550  70.7717730  57.4711550
  58.5353950  72.2334550  57.0874580  59.2004370  70.7514400  69.7393910
  58.9188640  71.2548000  68.9754730  59.5824070  69.9536150  69.3736040
  65.8019830  70.1667980  70.3174380  65.6885280  70.4862590  71.2125900
  66.6189570  70.5680490  70.0211660  64.7077980  78.1860450  40.6809120
  64.6272030  77.2715060  40.4100830  64.2942400  78.6827520  39.9748830
  62.8396020  79.9639470  42.5618390  62.0638120  79.4839910  42.8516960
  63.4908950  79.2845120  42.3874550  56.8561850  80.2759280  43.4394150
  56.0246730  80.0207990  43.8390660  57.4642830  80.3470050  44.1752070
  55.2653800  75.2361170  37.2236540  54.3770500  75.5777140  37.1216420
  55.5494990  75.0361490  36.3317370  53.2286810  77.8366820  43.1076240
  53.8002920  77.0689020  43.1079880  53.2288350  78.1355580  42.1982850
  54.4711680  73.2451180  44.8945170  54.2914520  72.3476930  45.1747930
  54.0691760  73.7923050  45.5692120  63.3110180  75.4467040  42.7957480
  63.6875000  74.5738920  42.6831150  63.2129690  75.7825740  41.9047920
  57.4415190  73.8192670  38.2574920  57.5481940  74.7196400  38.5643680
  56.5307550  73.7710640  37.9669570  67.0934300  72.9417480  39.7285820
  67.9143920  72.4514050  39.7711300  67.1268380  73.5315140  40.4817660
  55.0898350  75.7411680  43.5027510  55.7708460  76.0050050  44.1214910
  54.7746400  74.9012550  43.8365520  59.2822920  76.7879040  42.5900100
  59.7901140  77.2860010  43.2305120  59.8136160  76.0114240  42.4139460
  71.3833850  74.9584230  46.2929450  70.6786020  75.3465940  45.7744560
  71.6491770  75.6534520  46.8950380  57.5659020  71.4277600  46.8563520
  57.5677460  71.9449990  46.0509420  56.7363330  70.9507780  46.8333450
  67.3295780  74.8817860  42.5013360  66.6251350  75.1702750  43.0816470
  67.6907940  75.6917970  42.1412920  57.2474350  73.1387560  44.8633970
  57.5891160  73.9829610  44.5687840  56.3090160  73.2871300  44.9799310
  70.3982700  74.3272650  42.8922570  69.4507610  74.3611630  43.0238000
  70.7232690  75.1411600  43.2771930  60.9302240  70.6269830  41.1878560
  61.2377220  70.0716720  40.4714060  60.0002940  70.7614290  41.0051550
  63.3183000  78.6918660  37.9238680  62.3912280  78.6256040  38.1527150
  63.4707820  79.6298790  37.8093920  63.3052080  74.9635660  34.9205840
  62.3655750  75.1249620  35.0058300  63.6235340  75.6821340  34.3741830
  69.8264840  79.6454180  44.8984870  68.9983470  79.7147270  44.4235000
  70.4215320  80.2308490  44.4300700  67.3480290  80.2538960  38.4273930
  66.7292710  79.9158510  37.7800230  67.3304740  79.6098720  39.1353120
  66.7906850  76.4323500  45.8439740  66.3778030  77.2577210  46.0979730
  66.0582800  75.8468540  45.6516100  58.9239640  79.2183400  40.7058410
  58.5196640  78.5060650  40.2104310  59.0102760  78.8736640  41.5946450
  57.6368260  75.9926610  44.4857450  58.1882850  76.1021950  43.7110700
  58.1511770  76.3664210  45.2012680  65.5244990  79.4925770  35.4346680
  65.9638270  78.6548200  35.2884500  66.2373410  80.1255170  35.5210820
  57.3110990  79.5145970  48.0962790  57.1718760  80.3868770  48.4650190
  56.4292350  79.1718780  47.9510730  69.1062130  70.7468580  33.7487720
  68.7934790  70.8395410  34.6486790  69.8674600  71.3249610  33.6985150
  55.6244270  78.1128380  38.2065060  55.5041870  78.8390470  37.5946330
  55.3145160  77.3431290  37.7292970  70.3163420  75.4840080  49.7261860
  69.7007690  75.9919750  49.1977320  69.9959840  74.5838410  49.6687800
  58.0907930  71.4563450  41.5888730  57.6476080  72.2372990  41.2573250
  58.6492920  71.7793340  42.2959670  62.3777740  74.3231970  47.1924050
  61.9157110  74.5314990  48.0043990  61.9755850  73.5091320  46.8894720
  67.3782250  75.5440920  48.3220710  66.5275840  75.2446670  48.6429780
  67.2184040  75.7882930  47.4104530  64.4731960  77.0442670  50.4219500
  64.7985370  76.2106420  50.0821730  65.2612290  77.5671190  50.5697830
  61.2066750  71.0774150  36.4694560  60.5820930  71.0734020  37.1947870
  61.1196870  70.2105110  36.0730530  60.1283830  72.0010780  43.4478330
  60.4256160  72.9073610  43.3670350  60.6769390  71.5129560  42.8337900
  57.8822150  76.5797020  39.3169980  57.6563070  76.3634190  40.2216600
  57.1014680  77.0125480  38.9715950  65.1119910  76.5860390  37.9160630
  64.5128800  77.3096190  37.7324250  65.6599520  76.5237170  37.1337080
  60.3221360  77.4782600  49.9830250  60.2264960  76.5377330  49.8330650
  61.1653340  77.6997670  49.5878320  63.7184780  75.2223930  39.9463910
  64.1114350  75.5396130  39.1332600  64.0801630  74.3435810  40.0608430
  55.4531900  73.8896270  48.1364030  55.0595290  74.7371480  48.3436810
  54.7650300  73.2522640  48.3272670  62.0276950  73.9731240  51.2060770
  61.3375270  73.7803440  51.8406860  62.7709250  74.2565880  51.7385070
  52.7548950  71.8124730  42.1694110  52.4662000  72.3827590  42.8819090
  53.4994710  71.3329180  42.5325340  52.9419180  75.7544850  33.3796830
  52.8593850  76.6975610  33.5211820  52.5902240  75.6119760  32.5009180
  64.3039920  77.8129680  44.0414690  63.5721040  78.3216490  44.3904790
  63.9064260  76.9959660  43.7403470  60.7417310  74.4883880  42.4467180
  60.7453370  74.0473830  41.5971720  61.6368430  74.8101210  42.5539000
  56.5919690  74.3710370  41.4061390  56.2519740  74.8485600  42.1628440
  55.8297010  73.9175490  41.0462490  60.8037460  75.4895960  35.4373940
  60.9250280  75.4482440  36.3859760  60.4185970  76.3520110  35.2820670
  64.7665830  73.2663360  43.4537630  64.7838570  73.7172010  44.2979480
  64.5181410  72.3669000  43.6671070  59.8158960  77.7997100  34.8357240
  59.2475860  77.3515350  34.2093150  60.5247960  78.1589880  34.3022390
  68.1936580  70.6795540  49.2924010  68.5182350  69.9485200  49.8181990
  68.2293090  70.3609180  48.3905000  61.0425280  78.5485660  44.1932590
  61.4095410  78.0744230  44.9393930  60.8530340  79.4227230  44.5340930
  53.9065770  73.2929350  40.3226060  53.6212690  72.9285020  41.1604680
  53.8444630  72.5609810  39.7089200  58.8324650  77.5894300  46.5116800
  58.5281720  78.4686280  46.7367160  59.7871110  77.6494090  46.5474240
  68.1194420  80.7920650  42.9010040  68.8393540  81.2875940  42.5106150
  67.9176240  80.1138540  42.2563910  63.5804360  72.1858610  37.0439430
  62.7668970  71.6871780  36.9684740  63.3866310  73.0256860  36.6275780
  63.5013220  80.8629710  48.7879040  63.4350530  79.9425380  48.5336630
  62.8718360  80.9605150  49.5023680  66.2952750  76.5578260  35.3401590
  67.1832370  76.8695490  35.1652930  66.2657840  75.6850510  34.9482170
  54.8888380  78.4297040  47.6588160  54.5303320  79.0950890  48.2461500
  54.5942940  77.5980590  48.0300780  58.0901500  78.8881280  50.5427710
  57.7901640  79.0338460  49.6455530  58.8612740  78.3286570  50.4501100
  68.5667020  77.8690100  34.8081450  68.4830740  78.3004320  33.9577890
  69.2861210  78.3288450  35.2408270  69.6441160  80.3257620  47.8851420
  68.9189350  80.9186400  47.6880810  70.1716620  80.3181160  47.0864790
  53.3996430  78.4288300  34.2822760  54.2691280  78.7113100  34.5658680
  52.9086750  79.2424170  34.1671570  60.5631240  79.8161510  38.4031040
  61.0194020  80.6266760  38.6291230  60.2119450  79.4984650  39.2349530
  56.4643020  70.1599160  38.8753560  56.3357650  70.1517060  39.8238480
  55.6405040  70.4982250  38.5244570  53.4636950  71.9190280  48.3360260
  52.7495470  72.1187200  48.9412870  53.8831990  71.1429850  48.7075060
  55.3842940  80.2461770  36.4104820  54.7770890  80.9860670  36.4200120
  55.8592290  80.3361130  35.5843020  64.9575730  74.4112590  46.0861710
  65.3256550  73.5907800  46.4141280  64.0973930  74.4714480  46.5017360
  68.3237760  73.3669530  36.8949270  67.6950920  73.4715200  36.1807500
  67.8289680  73.5866310  37.6843150  60.2921790  75.6455480  38.3107150
  59.5837940  76.1141820  38.7520760  60.5766270  74.9877490  38.9452340
  61.9177720  77.0652180  46.3099680  62.4162970  77.5398000  46.9751530
  62.0600670  76.1415700  46.5169710  64.3237220  72.3706140  39.7502940
  64.2005000  72.3892270  38.8012450  65.2721780  72.4185080  39.8701340
  58.4956810  73.9540560  35.6857860  59.3447340  74.3910710  35.6198050
  58.1288080  74.2660820  36.5129920  69.1244580  73.2820140  47.1528070
  68.6218180  74.0225540  47.4921880  69.9401240  73.6704140  46.8364860
  67.4166590  78.5253320  40.5989430  66.4756730  78.5403550  40.7737120
  67.7310660  77.7389280  41.0449730  57.3948230  80.2072920  34.1593390
  58.1611500  80.0954280  34.7218820  57.4722920  79.5110890  33.5070160
  56.0894990  77.6397990  34.8426280  56.1698580  76.6925500  34.9543680
  56.9814740  77.9704870  34.9486940  53.6165790  79.4612910  50.0782450
  54.1204810  78.8820190  50.6498680  52.8773210  79.7453140  50.6158820
  55.6488870  77.6042500  50.9732520  55.6894210  77.3056370  51.8817750
  56.5034370  78.0050110  50.8140040  59.4267260  80.2038050  36.1336030
  59.8483680  80.0377920  36.9767420  59.5518100  79.3938280  35.6391170
  57.5894680  76.1834600  48.9407010  57.0591140  75.6925550  48.3130350
  58.2582750  76.6118800  48.4064940  61.9394900  79.2275660  33.3813130
  62.4600560  78.5124680  33.0154280  62.5863300  79.8661530  33.6813640
  66.4872740  80.6504060  48.7048200  66.9013760  80.8049140  49.5538620
  65.5523740  80.7759280  48.8673980  66.9594910  77.9900220  50.7087350
  67.5415680  77.2352540  50.6207830  67.1356680  78.5207660  49.9318830
  58.0766980  73.1496970  49.0204300  57.9823850  72.5317720  48.2955170
  57.4964370  73.8763260  48.7934210  60.8428420  71.7070210  46.0531690
  60.3945720  71.7294470  45.2077240  60.2093620  71.3089230  46.6501990
  63.5851870  78.3340720  48.0581970  63.7048080  77.7381860  48.7976810
  64.4445870  78.3710410  47.6383270  65.9239770  78.8877910  46.6344480
  65.3974990  79.4120530  46.0309620  66.2671110  79.5205300  47.2654210
  58.3226160  76.2771280  33.0794190  58.1215220  75.4138640  33.4407530
  58.1518210  76.1904640  32.1415790  60.3520640  74.8762070  49.3157790
  60.9420330  74.5677920  50.0035610  59.5340880  74.4041820  49.4717690
  65.1714070  74.4927880  49.5490810  64.4829590  73.8309420  49.4840800
  65.8920090  74.0466150  49.9939270  65.8014470  71.0879510  35.6081070
  66.0816760  70.2447410  35.9640490  65.0280200  71.3202620  36.1219820
  57.1208960  73.3771900  33.0672070  57.4234860  73.3839330  32.1591220
  57.8603550  73.0269760  33.5639730  60.3393890  72.3206520  34.0528270
  59.9915890  71.6430510  33.4730720  60.5406660  71.8596030  34.8671660
  70.1795190  80.3256240  36.2184980  70.9414100  80.8952890  36.3244670
  70.1949560  79.7583440  36.9893290  53.6799530  78.8494170  40.4492640
  53.0248370  78.5805810  39.8052340  54.5177480  78.7398650  39.9994620
  66.6289970  73.6435460  34.6711130  67.0474850  73.4566440  33.8307790
  66.3226030  72.7914510  34.9814060  70.1279700  78.5559600  38.3686930
  69.7523300  77.7887530  37.9368220  69.3982820  78.9382300  38.8561860
  54.7175460  79.2346740  44.9895980  55.0848500  79.1474140  45.8692000
  54.1486280  78.4713290  44.8902840  69.5179320  77.7031120  48.0026450
  69.2865410  77.4743870  47.1024400  69.7783870  78.6230670  47.9571340
  54.2691460  76.1455830  48.8954400  53.3747510  76.1122590  49.2348110
  54.8089010  76.3442620  49.6605650  67.9567390  72.9287550  50.7806150
  68.8337570  72.9370950  51.1640150  67.9688230  72.1918390  50.1698500
  52.8937610  76.0593100  36.3917970  51.9901690  76.3223300  36.2169630
  53.3778230  76.3304270  35.6117930  69.4030660  76.7817090  41.6694170
  69.9268140  76.2879740  41.0384340  69.9890080  76.9167450  42.4141740
  69.5820380  76.8656960  45.1913720  68.6323090  76.8320500  45.3058710
  69.7633390  77.7757070  44.9563490  55.4364820  75.1158640  34.3012350
  56.1456520  74.6941860  33.8159630  54.7204760  75.1833870  33.6695700
  55.0838980  71.1697970  33.3415000  55.8067110  71.7106910  33.6596220
  55.3563500  70.8961390  32.4656540  68.8930630  76.0390440  37.6086580
  69.3889750  75.8061310  38.3935460  68.6946700  75.2002280  37.1924220
  54.7731170  70.4204160  43.2437620  55.4207360  69.8701540  42.8032780
  55.1933010  70.6747310  44.0653430  70.3217790  74.6751390  40.1424260
  70.2117070  74.5207430  41.0806530  71.0825380  74.1472330  39.8999670
  68.6683510  70.6145520  46.6007260  69.3055730  71.2279660  46.9666450
  68.8158400  70.6506180  45.6556490  71.2108060  72.5059310  33.3830400
  72.1357370  72.3740490  33.1748690  71.1883850  72.5852130  34.3366850
  71.2846550  73.2769970  36.0087110  70.4898050  73.2115090  36.5380020
  71.4889830  74.2120610  35.9972460  54.5263170  70.5759830  45.9862940
  54.1777990  71.0323650  46.7521120  54.1950870  69.6816960  46.0685370
  62.0387990  71.7671710  49.5082360  61.9776880  72.3593540  50.2577770
  62.9788370  71.6597670  49.3632620  64.6762550  71.4241770  49.1474650
  65.2902960  71.7421060  48.4855730  65.2212110  70.9390360  49.7670510
  55.1983810  70.1036030  49.2613710  55.7466800  69.9224080  48.4979820
  55.2639120  69.3130140  49.7970020  65.4170590  69.9873910  45.4743940
  64.5430430  70.3209020  45.2716870  65.3081340  69.5147090  46.2995810
  66.3242570  72.1944780  46.8585660  65.9955930  71.3796540  46.4787390
  67.2724870  72.1514590  46.7351350  63.1645410  70.9043750  44.4136850
  62.3817200  71.3789250  44.6933610  62.8708340  69.9998580  44.3050030
  67.7166480  71.6066850  42.4585940  68.1574570  71.5511950  41.6107540
  67.4474070  72.5224860  42.5296120  69.5805050  71.2382090  40.4694760
  69.5193450  70.2943310  40.3225780  70.3597080  71.3462180  41.0148220
  54.5085820  71.2091230  36.9350570  55.2665180  71.3220110  36.3614600
  54.0462990  72.0460430  36.8894000  61.0499630  73.3230500  39.9252880
  60.2374140  72.9487390  39.5848760  61.5541270  72.5675580  40.2274070
  65.5524610  69.9872950  41.1635950  66.1553980  70.5593160  41.6384470
  64.8117600  70.5512390  40.9409850  68.6959210  70.3894510  36.4376230
  68.8909840  71.2877960  36.7043660  67.9089080  70.1581590  36.9309180
  56.8810970  71.7355280  35.4752540  57.4103730  70.9485080  35.3460490
  57.5139290  72.4146470  35.7088070  59.0748810  71.4730420  38.5297930
  58.4451550  70.7717730  38.6968060  58.5353950  72.2334550  38.3131090
  59.2004370  70.7514400  50.9650420  58.9188640  71.2548000  50.2011240
  59.5824070  69.9536150  50.5992550  65.8019830  70.1667980  51.5430890
  65.6885280  70.4862590  52.4382410  66.6189570  70.5680490  51.2468170
  64.7077980  78.1860450  21.9065630  64.6272030  77.2715060  21.6357340
  64.2942400  78.6827520  21.2005340  62.8396020  79.9639470  23.7874900
  62.0638120  79.4839910  24.0773470  63.4908950  79.2845120  23.6131060
  56.8561850  80.2759280  24.6650660  56.0246730  80.0207990  25.0647170
  57.4642830  80.3470050  25.4008580  55.2653800  75.2361170  18.4493050
  54.3770500  75.5777140  18.3472930  55.5494990  75.0361490  17.5573880
  53.2286810  77.8366820  24.3332750  53.8002920  77.0689020  24.3336390
  53.2288350  78.1355580  23.4239360  54.4711680  73.2451180  26.1201680
  54.2914520  72.3476930  26.4004440  54.0691760  73.7923050  26.7948630
  63.3110180  75.4467040  24.0213990  63.6875000  74.5738920  23.9087660
  63.2129690  75.7825740  23.1304430  57.4415190  73.8192670  19.4831430
  57.5481940  74.7196400  19.7900190  56.5307550  73.7710640  19.1926080
  67.0934300  72.9417480  20.9542330  67.9143920  72.4514050  20.9967810
  67.1268380  73.5315140  21.7074170  55.0898350  75.7411680  24.7284020
  55.7708460  76.0050050  25.3471420  54.7746400  74.9012550  25.0622030
  59.2822920  76.7879040  23.8156610  59.7901140  77.2860010  24.4561630
  59.8136160  76.0114240  23.6395970  71.3833850  74.9584230  27.5185960
  70.6786020  75.3465940  27.0001070  71.6491770  75.6534520  28.1206890
  57.5659020  71.4277600  28.0820030  57.5677460  71.9449990  27.2765930
  56.7363330  70.9507780  28.0589960  67.3295780  74.8817860  23.7269870
  66.6251350  75.1702750  24.3072980  67.6907940  75.6917970  23.3669430
  57.2474350  73.1387560  26.0890480  57.5891160  73.9829610  25.7944350
  56.3090160  73.2871300  26.2055820  70.3982700  74.3272650  24.1179080
  69.4507610  74.3611630  24.2494510  70.7232690  75.1411600  24.5028440
  60.9302240  70.6269830  22.4135070  61.2377220  70.0716720  21.6970570
  60.0002940  70.7614290  22.2308060  63.3183000  78.6918660  19.1495190
  62.3912280  78.6256040  19.3783660  63.4707820  79.6298790  19.0350430
  63.3052080  74.9635660  16.1462350  62.3655750  75.1249620  16.2314810
  63.6235340  75.6821340  15.5998340  69.8264840  79.6454180  26.1241380
  68.9983470  79.7147270  25.6491510  70.4215320  80.2308490  25.6557210
  67.3480290  80.2538960  19.6530440  66.7292710  79.9158510  19.0056740
  67.3304740  79.6098720  20.3609630  66.7906850  76.4323500  27.0696250
  66.3778030  77.2577210  27.3236240  66.0582800  75.8468540  26.8772610
  58.9239640  79.2183400  21.9314920  58.5196640  78.5060650  21.4360820
  59.0102760  78.8736640  22.8202960  57.6368260  75.9926610  25.7113960
  58.1882850  76.1021950  24.9367210  58.1511770  76.3664210  26.4269190
  65.5244990  79.4925770  16.6603190  65.9638270  78.6548200  16.5141010
  66.2373410  80.1255170  16.7467330  57.3110990  79.5145970  29.3219300
  57.1718760  80.3868770  29.6906700  56.4292350  79.1718780  29.1767240
  69.1062130  70.7468580  14.9744230  68.7934790  70.8395410  15.8743300
  69.8674600  71.3249610  14.9241660  55.6244270  78.1128380  19.4321570
  55.5041870  78.8390470  18.8202840  55.3145160  77.3431290  18.9549480
  70.3163420  75.4840080  30.9518370  69.7007690  75.9919750  30.4233830
  69.9959840  74.5838410  30.8944310  58.0907930  71.4563450  22.8145240
  57.6476080  72.2372990  22.4829760  58.6492920  71.7793340  23.5216180
  62.3777740  74.3231970  28.4180560  61.9157110  74.5314990  29.2300500
  61.9755850  73.5091320  28.1151230  67.3782250  75.5440920  29.5477220
  66.5275840  75.2446670  29.8686290  67.2184040  75.7882930  28.6361040
  64.4731960  77.0442670  31.6476010  64.7985370  76.2106420  31.3078240
  65.2612290  77.5671190  31.7954340  61.2066750  71.0774150  17.6951070
  60.5820930  71.0734020  18.4204380  61.1196870  70.2105110  17.2987040
  60.1283830  72.0010780  24.6734840  60.4256160  72.9073610  24.5926860
  60.6769390  71.5129560  24.0594410  57.8822150  76.5797020  20.5426490
  57.6563070  76.3634190  21.4473110  57.1014680  77.0125480  20.1972460
  65.1119910  76.5860390  19.1417140  64.5128800  77.3096190  18.9580760
  65.6599520  76.5237170  18.3593590  60.3221360  77.4782600  31.2086760
  60.2264960  76.5377330  31.0587160  61.1653340  77.6997670  30.8134830
  63.7184780  75.2223930  21.1720420  64.1114350  75.5396130  20.3589110
  64.0801630  74.3435810  21.2864940  55.4531900  73.8896270  29.3620540
  55.0595290  74.7371480  29.5693320  54.7650300  73.2522640  29.5529180
  62.0276950  73.9731240  32.4317280  61.3375270  73.7803440  33.0663370
  62.7709250  74.2565880  32.9641580  52.7548950  71.8124730  23.3950620
  52.4662000  72.3827590  24.1075600  53.4994710  71.3329180  23.7581850
  52.9419180  75.7544850  14.6053340  52.8593850  76.6975610  14.7468330
  52.5902240  75.6119760  13.7265690  64.3039920  77.8129680  25.2671200
  63.5721040  78.3216490  25.6161300  63.9064260  76.9959660  24.9659980
  60.7417310  74.4883880  23.6723690  60.7453370  74.0473830  22.8228230
  61.6368430  74.8101210  23.7795510  56.5919690  74.3710370  22.6317900
  56.2519740  74.8485600  23.3884950  55.8297010  73.9175490  22.2719000
  60.8037460  75.4895960  16.6630450  60.9250280  75.4482440  17.6116270
  60.4185970  76.3520110  16.5077180  64.7665830  73.2663360  24.6794140
  64.7838570  73.7172010  25.5235990  64.5181410  72.3669000  24.8927580
  59.8158960  77.7997100  16.0613750  59.2475860  77.3515350  15.4349660
  60.5247960  78.1589880  15.5278900  68.1936580  70.6795540  30.5180520
  68.5182350  69.9485200  31.0438500  68.2293090  70.3609180  29.6161510
  61.0425280  78.5485660  25.4189100  61.4095410  78.0744230  26.1650440
  60.8530340  79.4227230  25.7597440  53.9065770  73.2929350  21.5482570
  53.6212690  72.9285020  22.3861190  53.8444630  72.5609810  20.9345710
  58.8324650  77.5894300  27.7373310  58.5281720  78.4686280  27.9623670
  59.7871110  77.6494090  27.7730750  68.1194420  80.7920650  24.1266550
  68.8393540  81.2875940  23.7362660  67.9176240  80.1138540  23.4820420
  63.5804360  72.1858610  18.2695940  62.7668970  71.6871780  18.1941250
  63.3866310  73.0256860  17.8532290  63.5013220  80.8629710  30.0135550
  63.4350530  79.9425380  29.7593140  62.8718360  80.9605150  30.7280190
  66.2952750  76.5578260  16.5658100  67.1832370  76.8695490  16.3909440
  66.2657840  75.6850510  16.1738680  54.8888380  78.4297040  28.8844670
  54.5303320  79.0950890  29.4718010  54.5942940  77.5980590  29.2557290
  58.0901500  78.8881280  31.7684220  57.7901640  79.0338460  30.8712040
  58.8612740  78.3286570  31.6757610  68.5667020  77.8690100  16.0337960
  68.4830740  78.3004320  15.1834400  69.2861210  78.3288450  16.4664780
  69.6441160  80.3257620  29.1107930  68.9189350  80.9186400  28.9137320
  70.1716620  80.3181160  28.3121300  53.3996430  78.4288300  15.5079270
  54.2691280  78.7113100  15.7915190  52.9086750  79.2424170  15.3928080
  60.5631240  79.8161510  19.6287550  61.0194020  80.6266760  19.8547740
  60.2119450  79.4984650  20.4606040  56.4643020  70.1599160  20.1010070
  56.3357650  70.1517060  21.0494990  55.6405040  70.4982250  19.7501080
  53.4636950  71.9190280  29.5616770  52.7495470  72.1187200  30.1669380
  53.8831990  71.1429850  29.9331570  55.3842940  80.2461770  17.6361330
  54.7770890  80.9860670  17.6456630  55.8592290  80.3361130  16.8099530
  64.9575730  74.4112590  27.3118220  65.3256550  73.5907800  27.6397790
  64.0973930  74.4714480  27.7273870  68.3237760  73.3669530  18.1205780
  67.6950920  73.4715200  17.4064010  67.8289680  73.5866310  18.9099660
  60.2921790  75.6455480  19.5363660  59.5837940  76.1141820  19.9777270
  60.5766270  74.9877490  20.1708850  61.9177720  77.0652180  27.5356190
  62.4162970  77.5398000  28.2008040  62.0600670  76.1415700  27.7426220
  64.3237220  72.3706140  20.9759450  64.2005000  72.3892270  20.0268960
  65.2721780  72.4185080  21.0957850  58.4956810  73.9540560  16.9114370
  59.3447340  74.3910710  16.8454560  58.1288080  74.2660820  17.7386430
  69.1244580  73.2820140  28.3784580  68.6218180  74.0225540  28.7178390
  69.9401240  73.6704140  28.0621370  67.4166590  78.5253320  21.8245940
  66.4756730  78.5403550  21.9993630  67.7310660  77.7389280  22.2706240
  57.3948230  80.2072920  15.3849900  58.1611500  80.0954280  15.9475330
  57.4722920  79.5110890  14.7326670  56.0894990  77.6397990  16.0682790
  56.1698580  76.6925500  16.1800190  56.9814740  77.9704870  16.1743450
  53.6165790  79.4612910  31.3038960  54.1204810  78.8820190  31.8755190
  52.8773210  79.7453140  31.8415330  55.6488870  77.6042500  32.1989030
  55.6894210  77.3056370  33.1074260  56.5034370  78.0050110  32.0396550
  59.4267260  80.2038050  17.3592540  59.8483680  80.0377920  18.2023930
  59.5518100  79.3938280  16.8647680  57.5894680  76.1834600  30.1663520
  57.0591140  75.6925550  29.5386860  58.2582750  76.6118800  29.6321450
  61.9394900  79.2275660  14.6069640  62.4600560  78.5124680  14.2410790
  62.5863300  79.8661530  14.9070150  66.4872740  80.6504060  29.9304710
  66.9013760  80.8049140  30.7795130  65.5523740  80.7759280  30.0930490
  66.9594910  77.9900220  31.9343860  67.5415680  77.2352540  31.8464340
  67.1356680  78.5207660  31.1575340  58.0766980  73.1496970  30.2460810
  57.9823850  72.5317720  29.5211680  57.4964370  73.8763260  30.0190720
  60.8428420  71.7070210  27.2788200  60.3945720  71.7294470  26.4333750
  60.2093620  71.3089230  27.8758500  63.5851870  78.3340720  29.2838480
  63.7048080  77.7381860  30.0233320  64.4445870  78.3710410  28.8639780
  65.9239770  78.8877910  27.8600990  65.3974990  79.4120530  27.2566130
  66.2671110  79.5205300  28.4910720  58.3226160  76.2771280  14.3050700
  58.1215220  75.4138640  14.6664040  58.1518210  76.1904640  13.3672300
  60.3520640  74.8762070  30.5414300  60.9420330  74.5677920  31.2292120
  59.5340880  74.4041820  30.6974200  65.1714070  74.4927880  30.7747320
  64.4829590  73.8309420  30.7097310  65.8920090  74.0466150  31.2195780
  65.8014470  71.0879510  16.8337580  66.0816760  70.2447410  17.1897000
  65.0280200  71.3202620  17.3476330  57.1208960  73.3771900  14.2928580
  57.4234860  73.3839330  13.3847730  57.8603550  73.0269760  14.7896240
  60.3393890  72.3206520  15.2784780  59.9915890  71.6430510  14.6987230
  60.5406660  71.8596030  16.0928170  70.1795190  80.3256240  17.4441490
  70.9414100  80.8952890  17.5501180  70.1949560  79.7583440  18.2149800
  53.6799530  78.8494170  21.6749150  53.0248370  78.5805810  21.0308850
  54.5177480  78.7398650  21.2251130  66.6289970  73.6435460  15.8967640
  67.0474850  73.4566440  15.0564300  66.3226030  72.7914510  16.2070570
  70.1279700  78.5559600  19.5943440  69.7523300  77.7887530  19.1624730
  69.3982820  78.9382300  20.0818370  54.7175460  79.2346740  26.2152490
  55.0848500  79.1474140  27.0948510  54.1486280  78.4713290  26.1159350
  69.5179320  77.7031120  29.2282960  69.2865410  77.4743870  28.3280910
  69.7783870  78.6230670  29.1827850  54.2691460  76.1455830  30.1210910
  53.3747510  76.1122590  30.4604620  54.8089010  76.3442620  30.8862160
  67.9567390  72.9287550  32.0062660  68.8337570  72.9370950  32.3896660
  67.9688230  72.1918390  31.3955010  52.8937610  76.0593100  17.6174480
  51.9901690  76.3223300  17.4426140  53.3778230  76.3304270  16.8374440
  69.4030660  76.7817090  22.8950680  69.9268140  76.2879740  22.2640850
  69.9890080  76.9167450  23.6398250  69.5820380  76.8656960  26.4170230
  68.6323090  76.8320500  26.5315220  69.7633390  77.7757070  26.1820000
  55.4364820  75.1158640  15.5268860  56.1456520  74.6941860  15.0416140
  54.7204760  75.1833870  14.8952210  55.0838980  71.1697970  14.5671510
  55.8067110  71.7106910  14.8852730  55.3563500  70.8961390  13.6913050
  68.8930630  76.0390440  18.8343090  69.3889750  75.8061310  19.6191970
  68.6946700  75.2002280  18.4180730  54.7731170  70.4204160  24.4694130
  55.4207360  69.8701540  24.0289290  55.1933010  70.6747310  25.2909940
  70.3217790  74.6751390  21.3680770  70.2117070  74.5207430  22.3063040
  71.0825380  74.1472330  21.1256180  68.6683510  70.6145520  27.8263770
  69.3055730  71.2279660  28.1922960  68.8158400  70.6506180  26.8813000
  71.2108060  72.5059310  14.6086910  72.1357370  72.3740490  14.4005200
  71.1883850  72.5852130  15.5623360  71.2846550  73.2769970  17.2343620
  70.4898050  73.2115090  17.7636530  71.4889830  74.2120610  17.2228970
  54.5263170  70.5759830  27.2119450  54.1777990  71.0323650  27.9777630
  54.1950870  69.6816960  27.2941880  62.0387990  71.7671710  30.7338870
  61.9776880  72.3593540  31.4834280  62.9788370  71.6597670  30.5889130
  64.6762550  71.4241770  30.3731160  65.2902960  71.7421060  29.7112240
  65.2212110  70.9390360  30.9927020  55.1983810  70.1036030  30.4870220
  55.7466800  69.9224080  29.7236330  55.2639120  69.3130140  31.0226530
  65.4170590  69.9873910  26.7000450  64.5430430  70.3209020  26.4973380
  65.3081340  69.5147090  27.5252320  66.3242570  72.1944780  28.0842170
  65.9955930  71.3796540  27.7043900  67.2724870  72.1514590  27.9607860
  63.1645410  70.9043750  25.6393360  62.3817200  71.3789250  25.9190120
  62.8708340  69.9998580  25.5306540  67.7166480  71.6066850  23.6842450
  68.1574570  71.5511950  22.8364050  67.4474070  72.5224860  23.7552630
  69.5805050  71.2382090  21.6951270  69.5193450  70.2943310  21.5482290
  70.3597080  71.3462180  22.2404730  54.5085820  71.2091230  18.1607080
  55.2665180  71.3220110  17.5871110  54.0462990  72.0460430  18.1150510
  61.0499630  73.3230500  21.1509390  60.2374140  72.9487390  20.8105270
  61.5541270  72.5675580  21.4530580  65.5524610  69.9872950  22.3892460
  66.1553980  70.5593160  22.8640980  64.8117600  70.5512390  22.1666360
  68.6959210  70.3894510  17.6632740  68.8909840  71.2877960  17.9300170
  67.9089080  70.1581590  18.1565690  56.8810970  71.7355280  16.7009050
  57.4103730  70.9485080  16.5717000  57.5139290  72.4146470  16.9344580
  59.0748810  71.4730420  19.7554440  58.4451550  70.7717730  19.9224570
  58.5353950  72.2334550  19.5387600  59.2004370  70.7514400  32.1906930
  58.9188640  71.2548000  31.4267750  59.5824070  69.9536150  31.8249060
  65.8019830  70.1667980  32.7687400  65.6885280  70.4862590  33.6638920
  66.6189570  70.5680490  32.4724680  64.7077980  78.1860450   3.1322140
  64.6272030  77.2715060   2.8613850  64.2942400  78.6827520   2.4261850
  62.8396020  79.9639470   5.0131410  62.0638120  79.4839910   5.3029980
  63.4908950  79.2845120   4.8387570  56.8561850  80.2759280   5.8907170
  56.0246730  80.0207990   6.2903680  57.4642830  80.3470050   6.6265090
  53.2286810  77.8366820   5.5589260  53.8002920  77.0689020   5.5592900
  53.2288350  78.1355580   4.6495870  54.4711680  73.2451180   7.3458190
  54.2914520  72.3476930   7.6260950  54.0691760  73.7923050   8.0205140
  63.3110180  75.4467040   5.2470500  63.6875000  74.5738920   5.1344170
  63.2129690  75.7825740   4.3560940  67.0934300  72.9417480   2.1798840
  67.9143920  72.4514050   2.2224320  67.1268380  73.5315140   2.9330680
  55.0898350  75.7411680   5.9540530  55.7708460  76.0050050   6.5727930
  54.7746400  74.9012550   6.2878540  59.2822920  76.7879040   5.0413120
  59.7901140  77.2860010   5.6818140  59.8136160  76.0114240   4.8652480
  71.3833850  74.9584230   8.7442470  70.6786020  75.3465940   8.2257580
  71.6491770  75.6534520   9.3463400  57.5659020  71.4277600   9.3076540
  57.5677460  71.9449990   8.5022440  56.7363330  70.9507780   9.2846470
  67.3295780  74.8817860   4.9526380  66.6251350  75.1702750   5.5329490
  67.6907940  75.6917970   4.5925940  57.2474350  73.1387560   7.3146990
  57.5891160  73.9829610   7.0200860  56.3090160  73.2871300   7.4312330
  70.3982700  74.3272650   5.3435590  69.4507610  74.3611630   5.4751020
  70.7232690  75.1411600   5.7284950  60.9302240  70.6269830   3.6391580
  61.2377220  70.0716720   2.9227080  60.0002940  70.7614290   3.4564570
  69.8264840  79.6454180   7.3497890  68.9983470  79.7147270   6.8748020
  70.4215320  80.2308490   6.8813720  66.7906850  76.4323500   8.2952760
  66.3778030  77.2577210   8.5492750  66.0582800  75.8468540   8.1029120
  58.9239640  79.2183400   3.1571430  58.5196640  78.5060650   2.6617330
  59.0102760  78.8736640   4.0459470  57.6368260  75.9926610   6.9370470
  58.1882850  76.1021950   6.1623720  58.1511770  76.3664210   7.6525700
  57.3110990  79.5145970  10.5475810  57.1718760  80.3868770  10.9163210
  56.4292350  79.1718780  10.4023750  70.3163420  75.4840080  12.1774880
  69.7007690  75.9919750  11.6490340  69.9959840  74.5838410  12.1200820
  58.0907930  71.4563450   4.0401750  57.6476080  72.2372990   3.7086270
  58.6492920  71.7793340   4.7472690  62.3777740  74.3231970   9.6437070
  61.9157110  74.5314990  10.4557010  61.9755850  73.5091320   9.3407740
  67.3782250  75.5440920  10.7733730  66.5275840  75.2446670  11.0942800
  67.2184040  75.7882930   9.8617550  64.4731960  77.0442670  12.8732520
  64.7985370  76.2106420  12.5334750  65.2612290  77.5671190  13.0210850
  60.1283830  72.0010780   5.8991350  60.4256160  72.9073610   5.8183370
  60.6769390  71.5129560   5.2850920  57.8822150  76.5797020   1.7683000
  57.6563070  76.3634190   2.6729620  57.1014680  77.0125480   1.4228970
  60.3221360  77.4782600  12.4343270  60.2264960  76.5377330  12.2843670
  61.1653340  77.6997670  12.0391340  63.7184780  75.2223930   2.3976930
  64.1114350  75.5396130   1.5845620  64.0801630  74.3435810   2.5121450
  55.4531900  73.8896270  10.5877050  55.0595290  74.7371480  10.7949830
  54.7650300  73.2522640  10.7785690  62.0276950  73.9731240  13.6573790
  61.3375270  73.7803440  14.2919880  62.7709250  74.2565880  14.1898090
  52.7548950  71.8124730   4.6207130  52.4662000  72.3827590   5.3332110
  53.4994710  71.3329180   4.9838360  64.3039920  77.8129680   6.4927710
  63.5721040  78.3216490   6.8417810  63.9064260  76.9959660   6.1916490
  60.7417310  74.4883880   4.8980200  60.7453370  74.0473830   4.0484740
  61.6368430  74.8101210   5.0052020  56.5919690  74.3710370   3.8574410
  56.2519740  74.8485600   4.6141460  55.8297010  73.9175490   3.4975510
  64.7665830  73.2663360   5.9050650  64.7838570  73.7172010   6.7492500
  64.5181410  72.3669000   6.1184090  68.1936580  70.6795540  11.7437030
  68.5182350  69.9485200  12.2695010  68.2293090  70.3609180  10.8418020
  61.0425280  78.5485660   6.6445610  61.4095410  78.0744230   7.3906950
  60.8530340  79.4227230   6.9853950  53.9065770  73.2929350   2.7739080
  53.6212690  72.9285020   3.6117700  53.8444630  72.5609810   2.1602220
  58.8324650  77.5894300   8.9629820  58.5281720  78.4686280   9.1880180
  59.7871110  77.6494090   8.9987260  68.1194420  80.7920650   5.3523060
  68.8393540  81.2875940   4.9619170  67.9176240  80.1138540   4.7076930
  63.5013220  80.8629710  11.2392060  63.4350530  79.9425380  10.9849650
  62.8718360  80.9605150  11.9536700  54.8888380  78.4297040  10.1101180
  54.5303320  79.0950890  10.6974520  54.5942940  77.5980590  10.4813800
  58.0901500  78.8881280  12.9940730  57.7901640  79.0338460  12.0968550
  58.8612740  78.3286570  12.9014120  69.6441160  80.3257620  10.3364440
  68.9189350  80.9186400  10.1393830  70.1716620  80.3181160   9.5377810
  53.4636950  71.9190280  10.7873280  52.7495470  72.1187200  11.3925890
  53.8831990  71.1429850  11.1588080  64.9575730  74.4112590   8.5374730
  65.3256550  73.5907800   8.8654300  64.0973930  74.4714480   8.9530380
  61.9177720  77.0652180   8.7612700  62.4162970  77.5398000   9.4264550
  62.0600670  76.1415700   8.9682730  69.1244580  73.2820140   9.6041090
  68.6218180  74.0225540   9.9434900  69.9401240  73.6704140   9.2877880
  67.4166590  78.5253320   3.0502450  66.4756730  78.5403550   3.2250140
  67.7310660  77.7389280   3.4962750  53.6165790  79.4612910  12.5295470
  54.1204810  78.8820190  13.1011700  52.8773210  79.7453140  13.0671840
  55.6488870  77.6042500  13.4245540  55.6894210  77.3056370  14.3330770
  56.5034370  78.0050110  13.2653060  57.5894680  76.1834600  11.3920030
  57.0591140  75.6925550  10.7643370  58.2582750  76.6118800  10.8577960
  66.4872740  80.6504060  11.1561220  66.9013760  80.8049140  12.0051640
  65.5523740  80.7759280  11.3187000  66.9594910  77.9900220  13.1600370
  67.5415680  77.2352540  13.0720850  67.1356680  78.5207660  12.3831850
  58.0766980  73.1496970  11.4717320  57.9823850  72.5317720  10.7468190
  57.4964370  73.8763260  11.2447230  60.8428420  71.7070210   8.5044710
  60.3945720  71.7294470   7.6590260  60.2093620  71.3089230   9.1015010
  63.5851870  78.3340720  10.5094990  63.7048080  77.7381860  11.2489830
  64.4445870  78.3710410  10.0896290  65.9239770  78.8877910   9.0857500
  65.3974990  79.4120530   8.4822640  66.2671110  79.5205300   9.7167230
  60.3520640  74.8762070  11.7670810  60.9420330  74.5677920  12.4548630
  59.5340880  74.4041820  11.9230710  65.1714070  74.4927880  12.0003830
  64.4829590  73.8309420  11.9353820  65.8920090  74.0466150  12.4452290
  53.6799530  78.8494170   2.9005660  53.0248370  78.5805810   2.2565360
  54.5177480  78.7398650   2.4507640  54.7175460  79.2346740   7.4409000
  55.0848500  79.1474140   8.3205020  54.1486280  78.4713290   7.3415860
  69.5179320  77.7031120  10.4539470  69.2865410  77.4743870   9.5537420
  69.7783870  78.6230670  10.4084360  54.2691460  76.1455830  11.3467420
  53.3747510  76.1122590  11.6861130  54.8089010  76.3442620  12.1118670
  67.9567390  72.9287550  13.2319170  68.8337570  72.9370950  13.6153170
  67.9688230  72.1918390  12.6211520  69.4030660  76.7817090   4.1207190
  69.9268140  76.2879740   3.4897360  69.9890080  76.9167450   4.8654760
  69.5820380  76.8656960   7.6426740  68.6323090  76.8320500   7.7571730
  69.7633390  77.7757070   7.4076510  54.7731170  70.4204160   5.6950640
  55.4207360  69.8701540   5.2545800  55.1933010  70.6747310   6.5166450
  70.3217790  74.6751390   2.5937280  70.2117070  74.5207430   3.5319550
  71.0825380  74.1472330   2.3512690  68.6683510  70.6145520   9.0520280
  69.3055730  71.2279660   9.4179470  68.8158400  70.6506180   8.1069510
  54.5263170  70.5759830   8.4375960  54.1777990  71.0323650   9.2034140
  54.1950870  69.6816960   8.5198390  62.0387990  71.7671710  11.9595380
  61.9776880  72.3593540  12.7090790  62.9788370  71.6597670  11.8145640
  64.6762550  71.4241770  11.5987670  65.2902960  71.7421060  10.9368750
  65.2212110  70.9390360  12.2183530  55.1983810  70.1036030  11.7126730
  55.7466800  69.9224080  10.9492840  55.2639120  69.3130140  12.2483040
  65.4170590  69.9873910   7.9256960  64.5430430  70.3209020   7.7229890
  65.3081340  69.5147090   8.7508830  66.3242570  72.1944780   9.3098680
  65.9955930  71.3796540   8.9300410  67.2724870  72.1514590   9.1864370
  63.1645410  70.9043750   6.8649870  62.3817200  71.3789250   7.1446630
  62.8708340  69.9998580   6.7563050  67.7166480  71.6066850   4.9098960
  68.1574570  71.5511950   4.0620560  67.4474070  72.5224860   4.9809140
  69.5805050  71.2382090   2.9207780  69.5193450  70.2943310   2.7738800
  70.3597080  71.3462180   3.4661240  61.0499630  73.3230500   2.3765900
  60.2374140  72.9487390   2.0361780  61.5541270  72.5675580   2.6787090
  65.5524610  69.9872950   3.6148970  66.1553980  70.5593160   4.0897490
  64.8117600  70.5512390   3.3922870  59.2004370  70.7514400  13.4163440
  58.9188640  71.2548000  12.6524260  59.5824070  69.9536150  13.0505570
  65.8019830  70.1667980  13.9943910  65.6885280  70.4862590  14.8895430
  66.6189570  70.5680490  13.6981190  64.7077980  59.4116960  78.2296100
  64.6272030  58.4971570  77.9587810  64.2942400  59.9084030  77.5235810
  62.8396020  61.1895980  80.1105370  62.0638120  60.7096420  80.4003940
  63.4908950  60.5101630  79.9361530  56.8561850  61.5015790  80.9881130
  56.0246730  61.2464500  81.3877640  57.4642830  61.5726560  81.7239050
  66.8603450  65.5956170  78.8904500  66.3984980  64.8243410  79.2191670
  67.6729000  65.6222240  79.3956950  56.8363110  65.5355880  81.1839150
  57.1391150  64.6453620  81.0049370  57.5806700  66.0926100  80.9561400
  55.2653800  56.4617680  74.7723520  54.3770500  56.8033650  74.6703400
  55.5494990  56.2618000  73.8804350  53.2286810  59.0623330  80.6563220
  53.8002920  58.2945530  80.6566860  53.2288350  59.3612090  79.7469830
  63.0866760  67.8814180  78.5108490  62.4678200  68.3371680  77.9402930
  63.9418540  68.0365640  78.1098190  62.2805010  63.8653170  80.1175530
  62.2113290  62.9243110  79.9564660  63.0424870  63.9554580  80.6898100
  54.4711680  54.4707690  82.4432150  54.2914520  53.5733440  82.7234910
  54.0691760  55.0179560  83.1179100  63.3110180  56.6723550  80.3444460
  63.6875000  55.7995430  80.2318130  63.2129690  57.0082250  79.4534900
  57.4415190  55.0449180  75.8061900  57.5481940  55.9452910  76.1130660
  56.5307550  54.9967150  75.5156550  67.0934300  54.1673990  77.2772800
  67.9143920  53.6770560  77.3198280  67.1268380  54.7571650  78.0304640
  55.0898350  56.9668190  81.0514490  55.7708460  57.2306560  81.6701890
  54.7746400  56.1269060  81.3852500  59.2822920  58.0135550  80.1387080
  59.7901140  58.5116520  80.7792100  59.8136160  57.2370750  79.9626440
  63.9530110  62.7653420  75.9040400  63.3347380  63.2302870  75.3403120
  64.4653360  63.4580900  76.3209910  58.8161870  62.2929290  82.5824000
  58.4831250  62.9198210  83.2245070  58.9928550  62.8191170  81.8025670
  67.3295780  56.1074370  80.0500340  66.6251350  56.3959260  80.6303450
  67.6907940  56.9174480  79.6899900  57.2474350  54.3644070  82.4120950
  57.5891160  55.2086120  82.1174820  56.3090160  54.5127810  82.5286290
  53.3213310  63.4509950  73.2780030  52.9441290  63.9397050  72.5464930
  53.5786380  64.1235230  73.9086560  68.9458560  65.7249500  82.3127820
  68.2622080  66.3948610  82.3044490  69.4852850  65.9230150  81.5472680
  70.3982700  55.5529160  80.4409550  69.4507610  55.5868140  80.5724980
  70.7232690  56.3668110  80.8258910  60.9302240  51.8526340  78.7365540
  61.2377220  51.2973230  78.0201040  60.0002940  51.9870800  78.5538530
  66.4817300  67.5693630  81.0273000  66.4944460  67.1655920  80.1595260
  65.9292520  68.3440920  80.9234430  67.7762720  64.2909850  76.1163170
  67.6659050  63.3484180  76.2412590  67.7730970  64.6525490  77.0025930
  65.8802740  62.4723470  82.3555610  66.2971530  62.2583580  81.5209070
  66.6042560  62.7296260  82.9264230  63.3183000  59.9175170  75.4725660
  62.3912280  59.8512550  75.7014130  63.4707820  60.8555300  75.3580900
  63.3052080  56.1892170  72.4692820  62.3655750  56.3506130  72.5545280
  63.6235340  56.9077850  71.9228810  69.8264840  60.8710690  82.4471850
  68.9983470  60.9403780  81.9721980  70.4215320  61.4565000  81.9787680
  67.3480290  61.4795470  75.9760910  66.7292710  61.1415020  75.3287210
  67.3304740  60.8355230  76.6840100  58.9239640  60.4439910  78.2545390
  58.5196640  59.7317160  77.7591290  59.0102760  60.0993150  79.1433430
  59.3921340  64.1307470  80.4184600  59.0949630  63.5252940  79.7392380
  60.3421160  64.1684780  80.3073960  57.6368260  57.2183120  82.0344430
  58.1882850  57.3278460  81.2597680  58.1511770  57.5920720  82.7499660
  65.5244990  60.7182280  72.9833660  65.9638270  59.8804710  72.8371480
  66.2373410  61.3511680  73.0697800  63.6340370  65.6578350  76.9514900
  64.0736280  66.4002680  76.5370290  63.5727260  65.9004920  77.8753860
  69.1062130  51.9725090  71.2974700  68.7934790  52.0651920  72.1973770
  69.8674600  52.5506120  71.2472130  55.6244270  59.3384890  75.7552040
  55.5041870  60.0646980  75.1433310  55.3145160  58.5687800  75.2779950
  53.2629640  62.5100030  81.5620680  53.3410060  62.6448800  80.6176400
  53.8771320  61.8015920  81.7548800  54.5077270  64.2100220  77.9726860
  54.1005350  64.3514810  77.1180460  55.3990280  63.9260380  77.7698070
  66.3010550  68.6447470  74.3077910  66.1411690  68.3550410  75.2059740
  66.1357260  67.8687600  73.7723140  58.7798930  68.4246000  76.0849530
  58.6041410  67.5081540  75.8717330  57.9254670  68.7833290  76.3247330
  66.0036680  66.1535030  72.8675910  65.3101840  66.1512320  72.2078190
  66.7459540  65.7294350  72.4370080  65.5686610  67.7797740  76.9424400
  66.0243560  66.9987120  77.2563020  65.9079130  68.4904560  77.4865580
  58.0907930  52.6819960  79.1375710  57.6476080  53.4629500  78.8060230
  58.6492920  53.0049850  79.8446650  61.2066750  52.3030660  74.0181540
  60.5820930  52.2990530  74.7434850  61.1196870  51.4361620  73.6217510
  60.1283830  53.2267290  80.9965310  60.4256160  54.1330120  80.9157330
  60.6769390  52.7386070  80.3824880  57.8822150  57.8053530  76.8656960
  57.6563070  57.5890700  77.7703580  57.1014680  58.2381990  76.5202930
  65.1119910  57.8116900  75.4647610  64.5128800  58.5352700  75.2811230
  65.6599520  57.7493680  74.6824060  63.7184780  56.4480440  77.4950890
  64.1114350  56.7652640  76.6819580  64.0801630  55.5692320  77.6095410
  52.7548950  53.0381240  79.7181090  52.4662000  53.6084100  80.4306070
  53.4994710  52.5585690  80.0812320  52.9419180  56.9801360  70.9283810
  52.8593850  57.9232120  71.0698800  52.5902240  56.8376270  70.0496160
  64.3039920  59.0386190  81.5901670  63.5721040  59.5473000  81.9391770
  63.9064260  58.2216170  81.2890450  60.7417310  55.7140390  79.9954160
  60.7453370  55.2730340  79.1458700  61.6368430  56.0357720  80.1025980
  56.5919690  55.5966880  78.9548370  56.2519740  56.0742110  79.7115420
  55.8297010  55.1432000  78.5949470  60.8037460  56.7152470  72.9860920
  60.9250280  56.6738950  73.9346740  60.4185970  57.5776620  72.8307650
  64.7665830  54.4919870  81.0024610  64.7838570  54.9428520  81.8466460
  64.5181410  53.5925510  81.2158050  59.8158960  59.0253610  72.3844220
  59.2475860  58.5771860  71.7580130  60.5247960  59.3846390  71.8509370
  61.0425280  59.7742170  81.7419570  61.4095410  59.3000740  82.4880910
  60.8530340  60.6483740  82.0827910  53.9065770  54.5185860  77.8713040
  53.6212690  54.1541530  78.7091660  53.8444630  53.7866320  77.2576180
  57.3606440  63.0211800  74.6570630  56.5868700  62.4809420  74.4969350
  58.0901070  62.5018410  74.3188390  68.1194420  62.0177160  80.4497020
  68.8393540  62.5132450  80.0593130  67.9176240  61.3395050  79.8050890
  63.5804360  53.4115120  74.5926410  62.7668970  52.9128290  74.5171720
  63.3866310  54.2513370  74.1762760  66.2952750  57.7834770  72.8888570
  67.1832370  58.0952000  72.7139910  66.2657840  56.9107020  72.4969150
  57.4043840  62.6892180  78.2949440  57.9222510  61.8860440  78.2406330
  56.9527860  62.6271320  79.1366270  62.2913340  63.9558460  73.5676740
  62.6329040  64.7000690  73.0720060  61.4626050  64.2689580  73.9301570
  68.5667020  59.0946610  72.3568430  68.4830740  59.5260830  71.5064870
  69.2861210  59.5544960  72.7895250  69.5954270  65.9488870  75.0850560
  68.9530430  65.2944490  75.3594280  69.2084930  66.3543960  74.3091230
  65.1740750  63.2774300  78.9322250  65.5264570  62.6802430  78.2723620
  64.2903080  62.9518530  79.1030500  61.2604030  64.0371990  76.3392660
  61.9475160  64.5841200  76.7200250  60.4736450  64.5812720  76.3742270
  53.3996430  59.6544810  71.8309740  54.2691280  59.9369610  72.1145660
  52.9086750  60.4680680  71.7158550  60.5631240  61.0418020  75.9518020
  61.0194020  61.8523270  76.1778210  60.2119450  60.7241160  76.7836510
  56.4643020  51.3855670  76.4240540  56.3357650  51.3773570  77.3725460
  55.6405040  51.7238760  76.0731550  64.1395930  64.5556710  81.8987770
  64.7818160  63.8549870  82.0119940  64.6645280  65.3355150  81.7184660
  67.9851650  64.8405330  71.6226910  67.7589230  64.1235770  72.2151550
  67.5947850  64.5917770  70.7848660  53.7667680  68.8672190  72.3971370
  54.1265320  69.4661530  71.7428640  53.6260020  69.4132080  73.1706400
  67.5667900  62.7577270  73.2841070  67.2789600  63.2189960  74.0718950
  68.3620070  62.2975040  73.5525290  59.7836300  66.2503390  73.2145040
  59.7746400  66.9833080  72.5989550  58.8634660  66.0034970  73.3072000
  55.3842940  61.4718280  73.9591800  54.7770890  62.2117180  73.9687100
  55.8592290  61.5617640  73.1330000  68.3237760  54.5926040  74.4436250
  67.6950920  54.6971710  73.7294480  67.8289680  54.8122820  75.2330130
  62.7695900  66.3131630  71.8770230  62.8707880  66.1095620  70.9472210
  61.8697640  66.0589910  72.0818010  60.2921790  56.8711990  75.8594130
  59.5837940  57.3398330  76.3007740  60.5766270  56.2134000  76.4939320
  64.3237220  53.5962650  77.2989920  64.2005000  53.6148780  76.3499430
  65.2721780  53.6441590  77.4188320  61.4114010  68.8317950  76.5717900
  61.6655510  68.7939340  75.6497270  60.4626490  68.7051280  76.5646150
  58.4956810  55.1797070  73.2344840  59.3447340  55.6167220  73.1685030
  58.1288080  55.4917330  74.0616900  67.4166590  59.7509830  78.1476410
  66.4756730  59.7660060  78.3224100  67.7310660  58.9645790  78.5936710
  57.3948230  61.4329430  71.7080370  58.1611500  61.3210790  72.2705800
  57.4722920  60.7367400  71.0557140  56.0894990  58.8654500  72.3913260
  56.1698580  57.9182010  72.5030660  56.9814740  59.1961380  72.4973920
  69.4192170  66.9218680  79.8230670  69.5439590  67.7449850  80.2954480
  70.2857730  66.7109410  79.4754820  56.8909700  69.0149890  79.4947800
  57.6272180  68.4665350  79.7656370  57.2750620  69.8805900  79.3553790
  53.7755180  65.0823460  75.3689310  52.8494960  65.3244600  75.3594720
  54.2411610  65.9097720  75.2474060  60.0012010  68.1880200  71.3173370
  60.7940620  68.4769030  70.8655160  59.4816360  67.7572370  70.6385850
  69.0542180  67.4150330  72.7410110  68.7683690  67.0015470  71.9264290
  68.8561730  68.3438040  72.6210630  60.5189410  63.4083610  71.1815720
  60.4140050  62.7935960  71.9077100  60.3513630  62.8849500  70.3978730
  63.7592140  62.4703640  71.7857710  63.2102240  62.9172940  72.4300450
  64.3811400  61.9652890  72.3095380  59.4267260  61.4294560  73.6823010
  59.8483680  61.2634430  74.5254400  59.5518100  60.6194790  73.1878150
  61.9394900  60.4532170  70.9300110  62.4600560  59.7381190  70.5641260
  62.5863300  61.0918040  71.2300620  58.3226160  57.5027790  70.6281170
  58.1215220  56.6395150  70.9894510  58.1518210  57.4161150  69.6902770
  65.8014470  52.3136020  73.1568050  66.0816760  51.4703920  73.5127470
  65.0280200  52.5459130  73.6706800  57.1208960  54.6028410  70.6159050
  57.4234860  54.6095840  69.7078200  57.8603550  54.2526270  71.1126710
  60.3393890  53.5463030  71.6015250  59.9915890  52.8687020  71.0217700
  60.5406660  53.0852540  72.4158640  62.5042930  68.5343780  73.2201850
  63.3993720  68.8728750  73.2420610  62.5360560  67.8123190  72.5926130
  56.1439090  63.9070830  71.4488850  56.5813960  64.4500500  72.1046430
  56.6286820  63.0817780  71.4585190  53.3584890  66.6959860  78.9009110
  53.6887900  65.8280920  78.6687750  53.7875890  66.9018380  79.7314070
  57.9546810  65.0268870  76.5611080  57.6542350  64.9033840  77.4614990
  57.8484300  64.1677460  76.1526810  53.8475100  67.5630450  81.6390740
  53.4106090  67.7431250  82.4714890  54.4152780  68.3205070  81.4972460
  70.7238730  64.8065270  71.2637760  69.8931690  64.8741920  71.7344990
  70.9010560  65.6969390  70.9604620  70.1795190  61.5512750  73.7671960
  70.9414100  62.1209400  73.8731650  70.1949560  60.9839950  74.5380270
  53.6799530  60.0750680  77.9979620  53.0248370  59.8062320  77.3539320
  54.5177480  59.9655160  77.5481600  71.1855160  62.4062850  78.6113890
  71.5563990  61.6230170  78.2049860  71.8257090  63.0951950  78.4331190
  70.2314360  61.8447120  70.9244480  70.5063200  62.7526000  70.7963700
  70.0425100  61.7809650  71.8606470  66.6289970  54.8691970  72.2198110
  67.0474850  54.6822950  71.3794770  66.3226030  54.0171020  72.5301040
  70.1279700  59.7816110  75.9173910  69.7523300  59.0144040  75.4855200
  69.3982820  60.1638810  76.4048840  52.8937610  57.2849610  73.9404950
  51.9901690  57.5479810  73.7656610  53.3778230  57.5560780  73.1604910
  69.4030660  58.0073600  79.2181150  69.9268140  57.5136250  78.5871320
  69.9890080  58.1423960  79.9628720  69.5820380  58.0913470  82.7400700
  68.6323090  58.0577010  82.8545690  69.7633390  59.0013580  82.5050470
  55.4364820  56.3415150  71.8499330  56.1456520  55.9198370  71.3646610
  54.7204760  56.4090380  71.2182680  55.0838980  52.3954480  70.8901980
  55.8067110  52.9363420  71.2083200  55.3563500  52.1217900  70.0143520
  68.8930630  57.2646950  75.1573560  69.3889750  57.0317820  75.9422440
  68.6946700  56.4258790  74.7411200  54.7731170  51.6460670  80.7924600
  55.4207360  51.0958050  80.3519760  55.1933010  51.9003820  81.6140410
  70.3217790  55.9007900  77.6911240  70.2117070  55.7463940  78.6293510
  71.0825380  55.3728840  77.4486650  71.2108060  53.7315820  70.9317380
  72.1357370  53.5997000  70.7235670  71.1883850  53.8108640  71.8853830
  71.2846550  54.5026480  73.5574090  70.4898050  54.4371600  74.0867000
  71.4889830  55.4377120  73.5459440  68.2264970  68.5418030  77.5512480
  68.8224040  68.2202600  76.8746900  68.4843120  68.0689850  78.3425750
  68.7777180  69.1913330  81.3810210  68.3180150  69.9429140  81.0068230
  68.1489640  68.4719800  81.3225010  59.2072900  67.5001570  80.5558340
  59.7237920  66.8888930  80.0306600  59.8570280  68.0030350  81.0469350
  61.9468400  68.3910060  81.3827320  62.2346210  68.1364360  80.5060330
  62.4591620  67.8387420  81.9732890  63.1645410  52.1300260  81.9623830
  62.3817200  52.6045760  82.2420590  62.8708340  51.2255090  81.8537010
  67.7166480  52.8323360  80.0072920  68.1574570  52.7768460  79.1594520
  67.4474070  53.7481370  80.0783100  69.5805050  52.4638600  78.0181740
  69.5193450  51.5199820  77.8712760  70.3597080  52.5718690  78.5635200
  53.8857800  68.6030960  76.9805690  53.7179840  67.9701640  77.6787580
  53.0192310  68.8090360  76.6299880  54.5085820  52.4347740  74.4837550
  55.2665180  52.5476620  73.9101580  54.0462990  53.2716940  74.4380980
  61.0499630  54.5487010  77.4739860  60.2374140  54.1743900  77.1335740
  61.5541270  53.7932090  77.7761050  65.5524610  51.2129460  78.7122930
  66.1553980  51.7849670  79.1871450  64.8117600  51.7768900  78.4896830
  68.6959210  51.6151020  73.9863210  68.8909840  52.5134470  74.2530640
  67.9089080  51.3838100  74.4796160  55.4920500  67.2964190  74.4255830
  54.9668120  67.6772220  73.7217790  55.4165080  67.9214960  75.1465540
  56.8810970  52.9611790  73.0239520  57.4103730  52.1741590  72.8947470
  57.5139290  53.6402980  73.2575050  59.0748810  52.6986930  76.0784910
  58.4451550  51.9974240  76.2455040  58.5353950  53.4591060  75.8618070
  70.2485820  68.8551730  75.7469770  70.4238010  68.1689470  75.1030690
  69.5507390  69.3798780  75.3546440  58.0913470  69.2446570  73.3005080
  58.8232290  68.9605850  72.7528970  58.3507140  69.0059850  74.1904460
  57.2528260  65.3611300  73.3051410  56.6237140  65.8296400  73.8537240
  57.3676090  64.5160520  73.7397600  64.7077980  59.4116960  59.4552610
  64.6272030  58.4971570  59.1844320  64.2942400  59.9084030  58.7492320
  62.8396020  61.1895980  61.3361880  62.0638120  60.7096420  61.6260450
  63.4908950  60.5101630  61.1618040  56.8561850  61.5015790  62.2137640
  56.0246730  61.2464500  62.6134150  57.4642830  61.5726560  62.9495560
  66.8603450  65.5956170  60.1161010  66.3984980  64.8243410  60.4448180
  67.6729000  65.6222240  60.6213460  56.8363110  65.5355880  62.4095660
  57.1391150  64.6453620  62.2305880  57.5806700  66.0926100  62.1817910
  53.2286810  59.0623330  61.8819730  53.8002920  58.2945530  61.8823370
  53.2288350  59.3612090  60.9726340  63.0866760  67.8814180  59.7365000
  62.4678200  68.3371680  59.1659440  63.9418540  68.0365640  59.3354700
  62.2805010  63.8653170  61.3432040  62.2113290  62.9243110  61.1821170
  63.0424870  63.9554580  61.9154610  54.4711680  54.4707690  63.6688660
  54.2914520  53.5733440  63.9491420  54.0691760  55.0179560  64.3435610
  63.3110180  56.6723550  61.5700970  63.6875000  55.7995430  61.4574640
  63.2129690  57.0082250  60.6791410  67.0934300  54.1673990  58.5029310
  67.9143920  53.6770560  58.5454790  67.1268380  54.7571650  59.2561150
  55.0898350  56.9668190  62.2771000  55.7708460  57.2306560  62.8958400
  54.7746400  56.1269060  62.6109010  59.2822920  58.0135550  61.3643590
  59.7901140  58.5116520  62.0048610  59.8136160  57.2370750  61.1882950
  71.3833850  56.1840740  65.0672940  70.6786020  56.5722450  64.5488050
  71.6491770  56.8791030  65.6693870  57.5659020  52.6534110  65.6307010
  57.5677460  53.1706500  64.8252910  56.7363330  52.1764290  65.6076940
  63.9530110  62.7653420  57.1296910  63.3347380  63.2302870  56.5659630
  64.4653360  63.4580900  57.5466420  58.8161870  62.2929290  63.8080510
  58.4831250  62.9198210  64.4501580  58.9928550  62.8191170  63.0282180
  67.3295780  56.1074370  61.2756850  66.6251350  56.3959260  61.8559960
  67.6907940  56.9174480  60.9156410  57.2474350  54.3644070  63.6377460
  57.5891160  55.2086120  63.3431330  56.3090160  54.5127810  63.7542800
  58.0280970  64.2610090  65.6229690  58.6454970  64.9361170  65.3414140
  57.1674090  64.6698070  65.5317190  68.9458560  65.7249500  63.5384330
  68.2622080  66.3948610  63.5301000  69.4852850  65.9230150  62.7729190
  70.3982700  55.5529160  61.6666060  69.4507610  55.5868140  61.7981490
  70.7232690  56.3668110  62.0515420  60.9302240  51.8526340  59.9622050
  61.2377220  51.2973230  59.2457550  60.0002940  51.9870800  59.7795040
  66.4817300  67.5693630  62.2529510  66.4944460  67.1655920  61.3851770
  65.9292520  68.3440920  62.1490940  67.7762720  64.2909850  57.3419680
  67.6659050  63.3484180  57.4669100  67.7730970  64.6525490  58.2282440
  65.8802740  62.4723470  63.5812120  66.2971530  62.2583580  62.7465580
  66.6042560  62.7296260  64.1520740  69.8264840  60.8710690  63.6728360
  68.9983470  60.9403780  63.1978490  70.4215320  61.4565000  63.2044190
  67.3480290  61.4795470  57.2017420  66.7292710  61.1415020  56.5543720
  67.3304740  60.8355230  57.9096610  66.7906850  57.6580010  64.6183230
  66.3778030  58.4833720  64.8723220  66.0582800  57.0725050  64.4259590
  58.9239640  60.4439910  59.4801900  58.5196640  59.7317160  58.9847800
  59.0102760  60.0993150  60.3689940  59.3921340  64.1307470  61.6441110
  59.0949630  63.5252940  60.9648890  60.3421160  64.1684780  61.5330470
  57.6368260  57.2183120  63.2600940  58.1882850  57.3278460  62.4854190
  58.1511770  57.5920720  63.9756170  67.4806950  67.7039340  65.3064210
  67.0037510  68.5111530  65.1136820  66.7968740  67.0517670  65.4590420
  58.4839770  63.8689160  68.2948910  57.5868300  64.0929130  68.5422310
  58.5092640  63.9924100  67.3460310  57.3110990  60.7402480  66.8706280
  57.1718760  61.6125280  67.2393680  56.4292350  60.3975290  66.7254220
  63.6340370  65.6578350  58.1771410  64.0736280  66.4002680  57.7626800
  63.5727260  65.9004920  59.1010370  59.1091340  66.6824180  69.0791430
  59.0806770  67.0867130  68.2119860  58.9456310  65.7534540  68.9163030
  69.1062130  51.9725090  52.5231210  68.7934790  52.0651920  53.4230280
  69.8674600  52.5506120  52.4728640  71.0606160  67.4651280  70.3755600
  71.5365880  67.9434170  71.0544680  71.6813320  67.3968770  69.6501100
  53.2629640  62.5100030  62.7877190  53.3410060  62.6448800  61.8432910
  53.8771320  61.8015920  62.9805310  70.4639410  64.6564130  67.5355610
  70.5902470  64.4176010  66.6172790  70.5060790  63.8248670  68.0077690
  64.3256150  68.3592130  66.1050420  64.8400820  68.2700140  66.9072850
  63.4825230  68.7051830  66.3978330  66.3010550  68.6447470  55.5334420
  66.1411690  68.3550410  56.4316250  66.1357260  67.8687600  54.9979650
  58.7798930  68.4246000  57.3106040  58.6041410  67.5081540  57.0973840
  57.9254670  68.7833290  57.5503840  66.0036680  66.1535030  54.0932420
  65.3101840  66.1512320  53.4334700  66.7459540  65.7294350  53.6626590
  65.5686610  67.7797740  58.1680910  66.0243560  66.9987120  58.4819530
  65.9079130  68.4904560  58.7122090  70.3163420  56.7096590  68.5005350
  69.7007690  57.2176260  67.9720810  69.9959840  55.8094920  68.4431290
  53.3189160  63.5514200  65.3271650  53.4820200  63.0819560  64.5091020
  53.7841610  63.0437760  65.9920490  58.0907930  52.6819960  60.3632220
  57.6476080  53.4629500  60.0316740  58.6492920  53.0049850  61.0703160
  62.3777740  55.5488480  65.9667540  61.9157110  55.7571500  66.7787480
  61.9755850  54.7347830  65.6638210  67.3782250  56.7697430  67.0964200
  66.5275840  56.4703180  67.4173270  67.2184040  57.0139440  66.1848020
  64.4731960  58.2699180  69.1962990  64.7985370  57.4362930  68.8565220
  65.2612290  58.7927700  69.3441320  60.1283830  53.2267290  62.2221820
  60.4256160  54.1330120  62.1413840  60.6769390  52.7386070  61.6081390
  65.1119910  57.8116900  56.6904120  64.5128800  58.5352700  56.5067740
  65.6599520  57.7493680  55.9080570  60.3221360  58.7039110  68.7573740
  60.2264960  57.7633840  68.6074140  61.1653340  58.9254180  68.3621810
  63.7184780  56.4480440  58.7207400  64.1114350  56.7652640  57.9076090
  64.0801630  55.5692320  58.8351920  55.4531900  55.1152780  66.9107520
  55.0595290  55.9627990  67.1180300  54.7650300  54.4779150  67.1016160
  62.0276950  55.1987750  69.9804260  61.3375270  55.0059950  70.6150350
  62.7709250  55.4822390  70.5128560  64.3039920  59.0386190  62.8158180
  63.5721040  59.5473000  63.1648280  63.9064260  58.2216170  62.5146960
  60.7417310  55.7140390  61.2210670  60.7453370  55.2730340  60.3715210
  61.6368430  56.0357720  61.3282490  64.7665830  54.4919870  62.2281120
  64.7838570  54.9428520  63.0722970  64.5181410  53.5925510  62.4414560
  68.1936580  51.9052050  68.0667500  68.5182350  51.1741710  68.5925480
  68.2293090  51.5865690  67.1648490  54.8928140  62.9265630  67.4867460
  54.5082930  62.2859300  68.0850420  55.2040330  63.6301750  68.0562190
  61.0425280  59.7742170  62.9676080  61.4095410  59.3000740  63.7137420
  60.8530340  60.6483740  63.3084420  58.8324650  58.8150810  65.2860290
  58.5281720  59.6942790  65.5110650  59.7871110  58.8750600  65.3217730
  57.3606440  63.0211800  55.8827140  56.5868700  62.4809420  55.7225860
  58.0901070  62.5018410  55.5444900  68.1194420  62.0177160  61.6753530
  68.8393540  62.5132450  61.2849640  67.9176240  61.3395050  61.0307400
  63.5804360  53.4115120  55.8182920  62.7668970  52.9128290  55.7428230
  63.3866310  54.2513370  55.4019270  63.5013220  62.0886220  67.5622530
  63.4350530  61.1681890  67.3080120  62.8718360  62.1861660  68.2767170
  57.4043840  62.6892180  59.5205950  57.9222510  61.8860440  59.4662840
  56.9527860  62.6271320  60.3622780  62.2913340  63.9558460  54.7933250
  62.6329040  64.7000690  54.2976570  61.4626050  64.2689580  55.1558080
  54.8888380  59.6553550  66.4331650  54.5303320  60.3207400  67.0204990
  54.5942940  58.8237100  66.8044270  58.0901500  60.1137790  69.3171200
  57.7901640  60.2594970  68.4199020  58.8612740  59.5543080  69.2244590
  63.4329950  64.9106790  67.3126330  63.4474490  63.9787750  67.0945240
  62.7255050  64.9966550  67.9516100  68.5667020  59.0946610  53.5824940
  68.4830740  59.5260830  52.7321380  69.2861210  59.5544960  54.0151760
  69.6441160  61.5514130  66.6594910  68.9189350  62.1442910  66.4624300
  70.1716620  61.5437670  65.8608280  69.5954270  65.9488870  56.3107070
  68.9530430  65.2944490  56.5850790  69.2084930  66.3543960  55.5347740
  65.1740750  63.2774300  60.1578760  65.5264570  62.6802430  59.4980130
  64.2903080  62.9518530  60.3287010  61.2604030  64.0371990  57.5649170
  61.9475160  64.5841200  57.9456760  60.4736450  64.5812720  57.5998780
  60.5631240  61.0418020  57.1774530  61.0194020  61.8523270  57.4034720
  60.2119450  60.7241160  58.0093020  62.8663850  66.5524360  64.4066830
  63.5106070  66.7583740  65.0840250  63.2293290  65.7912760  63.9537680
  64.1395930  64.5556710  63.1244280  64.7818160  63.8549870  63.2376450
  64.6645280  65.3355150  62.9441170  67.9851650  64.8405330  52.8483420
  67.7589230  64.1235770  53.4408060  67.5947850  64.5917770  52.0105170
  65.9133550  65.3551610  66.3280340  66.2489790  65.9418300  67.0058260
  64.9933890  65.2244320  66.5578130  53.7667680  68.8672190  53.6227880
  54.1265320  69.4661530  52.9685150  53.6260020  69.4132080  54.3962910
  53.4636950  53.1446790  67.1103750  52.7495470  53.3443710  67.7156360
  53.8831990  52.3686360  67.4818550  67.5667900  62.7577270  54.5097580
  67.2789600  63.2189960  55.2975460  68.3620070  62.2975040  54.7781800
  53.7509540  67.1327050  68.0970280  53.8600660  66.1921790  67.9565670
  53.0990100  67.3981800  67.4484010  61.7422130  65.4042940  69.4968400
  61.4219000  64.6852180  70.0414090  61.0680490  66.0798010  69.5704460
  59.7836300  66.2503390  54.4401550  59.7746400  66.9833080  53.8246060
  58.8634660  66.0034970  54.5328510  64.9575730  55.6369100  64.8605200
  65.3256550  54.8164310  65.1884770  64.0973930  55.6970990  65.2760850
  68.3237760  54.5926040  55.6692760  67.6950920  54.6971710  54.9550990
  67.8289680  54.8122820  56.4586640  62.7695900  66.3131630  53.1026740
  62.8707880  66.1095620  52.1728720  61.8697640  66.0589910  53.3074520
  60.2921790  56.8711990  57.0850640  59.5837940  57.3398330  57.5264250
  60.5766270  56.2134000  57.7195830  61.9177720  58.2908690  65.0843170
  62.4162970  58.7654510  65.7495020  62.0600670  57.3672210  65.2913200
  64.3237220  53.5962650  58.5246430  64.2005000  53.6148780  57.5755940
  65.2721780  53.6441590  58.6444830  61.4114010  68.8317950  57.7974410
  61.6655510  68.7939340  56.8753780  60.4626490  68.7051280  57.7902660
  69.1244580  54.5076650  65.9271560  68.6218180  55.2482050  66.2665370
  69.9401240  54.8960650  65.6108350  67.4166590  59.7509830  59.3732920
  66.4756730  59.7660060  59.5480610  67.7310660  58.9645790  59.8193220
  69.4192170  66.9218680  61.0487180  69.5439590  67.7449850  61.5210990
  70.2857730  66.7109410  60.7011330  56.8909700  69.0149890  60.7204310
  57.6272180  68.4665350  60.9912880  57.2750620  69.8805900  60.5810300
  55.8967980  68.1995960  69.9089890  56.6980710  68.5208010  70.3225290
  55.3819800  67.8391540  70.6309800  60.0012010  68.1880200  52.5429880
  60.7940620  68.4769030  52.0911670  59.4816360  67.7572370  51.8642360
  64.7332610  64.3075830  69.8565300  64.1270770  64.3307430  69.1161050
  64.4286720  63.5758870  70.3932550  66.1632980  68.0356120  68.4674710
  67.1154730  67.9514140  68.4174950  66.0161200  68.6997830  69.1408500
  69.0542180  67.4150330  53.9666620  68.7683690  67.0015470  53.1520800
  68.8561730  68.3438040  53.8467140  53.6165790  60.6869420  68.8525940
  54.1204810  60.1076700  69.4242170  52.8773210  60.9709650  69.3902310
  60.5189410  63.4083610  52.4072230  60.4140050  62.7935960  53.1333610
  60.3513630  62.8849500  51.6235240  60.6703730  62.0940410  68.3861460
  59.9049400  62.6625410  68.3016130  60.8519690  61.8016620  67.4929690
  67.8127080  63.8245740  68.9436480  68.5536550  64.1621500  68.4403940
  67.0499760  63.9937800  68.3906250  55.6488870  58.8299010  69.7476010
  55.6894210  58.5312880  70.6561240  56.5034370  59.2306620  69.5883530
  57.5894680  57.4091110  67.7150500  57.0591140  56.9182060  67.0873840
  58.2582750  57.8375310  67.1808430  66.4872740  61.8760570  67.4791690
  66.9013760  62.0305650  68.3282110  65.5523740  62.0015790  67.6417470
  66.9594910  59.2156730  69.4830840  67.5415680  58.4609050  69.3951320
  67.1356680  59.7464170  68.7062320  58.0766980  54.3753480  67.7947790
  57.9823850  53.7574230  67.0698660  57.4964370  55.1019770  67.5677700
  60.8428420  52.9326720  64.8275180  60.3945720  52.9550980  63.9820730
  60.2093620  52.5345740  65.4245480  61.2487970  61.8281050  65.4487620
  61.6676080  62.6713780  65.2763860  60.3296600  61.9653090  65.2194400
  63.5851870  59.5597230  66.8325460  63.7048080  58.9638370  67.5720300
  64.4445870  59.5966920  66.4126760  65.9239770  60.1134420  65.4087970
  65.3974990  60.6377040  64.8053110  66.2671110  60.7461810  66.0397700
  59.0995390  68.1334060  66.5645350  58.5616480  68.8580120  66.2454050
  59.3529350  67.6564400  65.7742690  60.3520640  56.1018580  68.0901280
  60.9420330  55.7934430  68.7779100  59.5340880  55.6298330  68.2461180
  65.1714070  55.7184390  68.3234300  64.4829590  55.0565930  68.2584290
  65.8920090  55.2722660  68.7682760  65.8014470  52.3136020  54.3824560
  66.0816760  51.4703920  54.7383980  65.0280200  52.5459130  54.8963310
  61.9557600  69.3685270  66.8232000  61.8816300  70.2720410  67.1304370
  61.0536440  69.0497170  66.7954070  62.5042930  68.5343780  54.4458360
  63.3993720  68.8728750  54.4677120  62.5360560  67.8123190  53.8182640
  53.3584890  66.6959860  60.1265620  53.6887900  65.8280920  59.8944260
  53.7875890  66.9018380  60.9570580  57.9546810  65.0268870  57.7867590
  57.6542350  64.9033840  58.6871500  57.8484300  64.1677460  57.3783320
  53.8475100  67.5630450  62.8647250  53.4106090  67.7431250  63.6971400
  54.4152780  68.3205070  62.7228970  69.4837280  67.0647450  67.1524560
  68.8839270  67.1240010  66.4088480  69.6131180  66.1252430  67.2821410
  70.7238730  64.8065270  52.4894270  69.8931690  64.8741920  52.9601500
  70.9010560  65.6969390  52.1861130  70.1795190  61.5512750  54.9928470
  70.9414100  62.1209400  55.0988160  70.1949560  60.9839950  55.7636780
  71.1855160  62.4062850  59.8370400  71.5563990  61.6230170  59.4306370
  71.8257090  63.0951950  59.6587700  68.1688920  63.7899430  65.2500720
  67.3548760  64.2196590  65.5126510  68.5763120  64.4017840  64.6369770
  70.2314360  61.8447120  52.1500990  70.5063200  62.7526000  52.0220210
  70.0425100  61.7809650  53.0862980  66.6289970  54.8691970  53.4454620
  67.0474850  54.6822950  52.6051280  66.3226030  54.0171020  53.7557550
  70.1279700  59.7816110  57.1430420  69.7523300  59.0144040  56.7111710
  69.3982820  60.1638810  57.6305350  54.7175460  60.4603250  63.7639470
  55.0848500  60.3730650  64.6435490  54.1486280  59.6969800  63.6646330
  69.5179320  58.9287630  66.7769940  69.2865410  58.7000380  65.8767890
  69.7783870  59.8487180  66.7314830  54.2691460  57.3712340  67.6697890
  53.3747510  57.3379100  68.0091600  54.8089010  57.5699130  68.4349140
  67.9567390  54.1544060  69.5549640  68.8337570  54.1627460  69.9383640
  67.9688230  53.4174900  68.9441990  69.4030660  58.0073600  60.4437660
  69.9268140  57.5136250  59.8127830  69.9890080  58.1423960  61.1885230
  69.5820380  58.0913470  63.9657210  68.6323090  58.0577010  64.0802200
  69.7633390  59.0013580  63.7306980  68.8930630  57.2646950  56.3830070
  69.3889750  57.0317820  57.1678950  68.6946700  56.4258790  55.9667710
  70.3217790  55.9007900  58.9167750  70.2117070  55.7463940  59.8550020
  71.0825380  55.3728840  58.6743160  68.6683510  51.8402030  65.3750750
  69.3055730  52.4536170  65.7409940  68.8158400  51.8762690  64.4299980
  71.2108060  53.7315820  52.1573890  72.1357370  53.5997000  51.9492180
  71.1883850  53.8108640  53.1110340  71.2846550  54.5026480  54.7830600
  70.4898050  54.4371600  55.3123510  71.4889830  55.4377120  54.7715950
  68.2264970  68.5418030  58.7768990  68.8224040  68.2202600  58.1003410
  68.4843120  68.0689850  59.5682260  54.5263170  51.8016340  64.7606430
  54.1777990  52.2580160  65.5264610  54.1950870  50.9073470  64.8428860
  56.1327540  64.9735940  68.9259620  56.0897170  64.6028850  69.8074080
  56.2638550  65.9113510  69.0661440  59.8333570  66.5295530  64.5269340
  59.5924930  66.7970090  63.6399860  60.7736210  66.7001260  64.5820200
  62.0387990  52.9928220  68.2825850  61.9776880  53.5850050  69.0321260
  62.9788370  52.8854180  68.1376110  64.6762550  52.6498280  67.9218140
  65.2902960  52.9677570  67.2599220  65.2212110  52.1646870  68.5414000
  71.0937730  68.5489910  65.3279980  70.5996010  68.9458780  64.6107110
  70.4851020  67.9239120  65.7217260  55.1983810  51.3292540  68.0357200
  55.7466800  51.1480590  67.2723310  55.2639120  50.5386650  68.5713510
  55.9715570  67.9198190  66.0457400  55.3775890  67.7882890  66.7847440
  55.9639410  67.0836330  65.5799500  65.4170590  51.2130420  64.2487430
  64.5430430  51.5465530  64.0460360  65.3081340  50.7403600  65.0739300
  66.3242570  53.4201290  65.6329150  65.9955930  52.6053050  65.2530880
  67.2724870  53.3771100  65.5094840  68.7777180  69.1913330  62.6066720
  68.3180150  69.9429140  62.2324740  68.1489640  68.4719800  62.5481520
  55.6027800  65.2856570  64.9965440  54.8761860  64.6661860  64.9291390
  55.6636950  65.6797180  64.1263520  59.2072900  67.5001570  61.7814850
  59.7237920  66.8888930  61.2563110  59.8570280  68.0030350  62.2725860
  61.9468400  68.3910060  62.6083830  62.2346210  68.1364360  61.7316840
  62.4591620  67.8387420  63.1989400  63.1645410  52.1300260  63.1880340
  62.3817200  52.6045760  63.4677100  62.8708340  51.2255090  63.0793520
  67.7166480  52.8323360  61.2329430  68.1574570  52.7768460  60.3851030
  67.4474070  53.7481370  61.3039610  69.5805050  52.4638600  59.2438250
  69.5193450  51.5199820  59.0969270  70.3597080  52.5718690  59.7891710
  53.8857800  68.6030960  58.2062200  53.7179840  67.9701640  58.9044090
  53.0192310  68.8090360  57.8556390  61.0499630  54.5487010  58.6996370
  60.2374140  54.1743900  58.3592250  61.5541270  53.7932090  59.0017560
  65.5524610  51.2129460  59.9379440  66.1553980  51.7849670  60.4127960
  64.8117600  51.7768900  59.7153340  68.6959210  51.6151020  55.2119720
  68.8909840  52.5134470  55.4787150  67.9089080  51.3838100  55.7052670
  55.4920500  67.2964190  55.6512340  54.9668120  67.6772220  54.9474300
  55.4165080  67.9214960  56.3722050  62.0140760  69.3126160  69.9752030
  62.9408070  69.0770430  70.0187990  61.9991190  70.1398160  69.4938060
  70.2485820  68.8551730  56.9726280  70.4238010  68.1689470  56.3287200
  69.5507390  69.3798780  56.5802950  59.2004370  51.9770910  69.7393910
  58.9188640  52.4804510  68.9754730  59.5824070  51.1792660  69.3736040
  58.0913470  69.2446570  54.5261590  58.8232290  68.9605850  53.9785480
  58.3507140  69.0059850  55.4160970  57.2528260  65.3611300  54.5307920
  56.6237140  65.8296400  55.0793750  57.3676090  64.5160520  54.9654110
  65.8019830  51.3924490  70.3174380  65.6885280  51.7119100  71.2125900
  66.6189570  51.7937000  70.0211660  68.5818320  68.5396020  69.7993070
  69.3743640  68.0445250  69.5919030  68.8751470  69.2186160  70.4068680
  66.8603450  65.5956170  41.3417520  66.3984980  64.8243410  41.6704690
  67.6729000  65.6222240  41.8469970  63.0866760  67.8814180  40.9621510
  62.4678200  68.3371680  40.3915950  63.9418540  68.0365640  40.5611210
  62.2805010  63.8653170  42.5688550  62.2113290  62.9243110  42.4077680
  63.0424870  63.9554580  43.1411120  71.3833850  56.1840740  46.2929450
  70.6786020  56.5722450  45.7744560  71.6491770  56.8791030  46.8950380
  68.9458560  65.7249500  44.7640840  68.2622080  66.3948610  44.7557510
  69.4852850  65.9230150  43.9985700  70.3982700  55.5529160  42.8922570
  69.4507610  55.5868140  43.0238000  70.7232690  56.3668110  43.2771930
  66.4817300  67.5693630  43.4786020  66.4944460  67.1655920  42.6108280
  65.9292520  68.3440920  43.3747450  67.7762720  64.2909850  38.5676190
  67.6659050  63.3484180  38.6925610  67.7730970  64.6525490  39.4538950
  69.8264840  60.8710690  44.8984870  68.9983470  60.9403780  44.4235000
  70.4215320  61.4565000  44.4300700  67.3480290  61.4795470  38.4273930
  66.7292710  61.1415020  37.7800230  67.3304740  60.8355230  39.1353120
  67.4806950  67.7039340  46.5320720  67.0037510  68.5111530  46.3393330
  66.7968740  67.0517670  46.6846930  65.5244990  60.7182280  35.4346680
  65.9638270  59.8804710  35.2884500  66.2373410  61.3511680  35.5210820
  63.6340370  65.6578350  39.4027920  64.0736280  66.4002680  38.9883310
  63.5727260  65.9004920  40.3266880  59.1091340  66.6824180  50.3047940
  59.0806770  67.0867130  49.4376370  58.9456310  65.7534540  50.1419540
  69.1062130  51.9725090  33.7487720  68.7934790  52.0651920  34.6486790
  69.8674600  52.5506120  33.6985150  71.0606160  67.4651280  51.6012110
  71.5365880  67.9434170  52.2801190  71.6813320  67.3968770  50.8757610
  70.4639410  64.6564130  48.7612120  70.5902470  64.4176010  47.8429300
  70.5060790  63.8248670  49.2334200  64.3256150  68.3592130  47.3306930
  64.8400820  68.2700140  48.1329360  63.4825230  68.7051830  47.6234840
  66.3010550  68.6447470  36.7590930  66.1411690  68.3550410  37.6572760
  66.1357260  67.8687600  36.2236160  58.7798930  68.4246000  38.5362550
  58.6041410  67.5081540  38.3230350  57.9254670  68.7833290  38.7760350
  66.0036680  66.1535030  35.3188930  65.3101840  66.1512320  34.6591210
  66.7459540  65.7294350  34.8883100  65.5686610  67.7797740  39.3937420
  66.0243560  66.9987120  39.7076040  65.9079130  68.4904560  39.9378600
  70.3163420  56.7096590  49.7261860  69.7007690  57.2176260  49.1977320
  69.9959840  55.8094920  49.6687800  68.1936580  51.9052050  49.2924010
  68.5182350  51.1741710  49.8181990  68.2293090  51.5865690  48.3905000
  68.1194420  62.0177160  42.9010040  68.8393540  62.5132450  42.5106150
  67.9176240  61.3395050  42.2563910  63.5013220  62.0886220  48.7879040
  63.4350530  61.1681890  48.5336630  62.8718360  62.1861660  49.5023680
  66.2952750  57.7834770  35.3401590  67.1832370  58.0952000  35.1652930
  66.2657840  56.9107020  34.9482170  62.2913340  63.9558460  36.0189760
  62.6329040  64.7000690  35.5233080  61.4626050  64.2689580  36.3814590
  63.4329950  64.9106790  48.5382840  63.4474490  63.9787750  48.3201750
  62.7255050  64.9966550  49.1772610  68.5667020  59.0946610  34.8081450
  68.4830740  59.5260830  33.9577890  69.2861210  59.5544960  35.2408270
  69.6441160  61.5514130  47.8851420  68.9189350  62.1442910  47.6880810
  70.1716620  61.5437670  47.0864790  69.5954270  65.9488870  37.5363580
  68.9530430  65.2944490  37.8107300  69.2084930  66.3543960  36.7604250
  62.8663850  66.5524360  45.6323340  63.5106070  66.7583740  46.3096760
  63.2293290  65.7912760  45.1794190  64.1395930  64.5556710  44.3500790
  64.7818160  63.8549870  44.4632960  64.6645280  65.3355150  44.1697680
  67.9851650  64.8405330  34.0739930  67.7589230  64.1235770  34.6664570
  67.5947850  64.5917770  33.2361680  65.9133550  65.3551610  47.5536850
  66.2489790  65.9418300  48.2314770  64.9933890  65.2244320  47.7834640
  53.7667680  68.8672190  34.8484390  54.1265320  69.4661530  34.1941660
  53.6260020  69.4132080  35.6219420  67.5667900  62.7577270  35.7354090
  67.2789600  63.2189960  36.5231970  68.3620070  62.2975040  36.0038310
  61.7422130  65.4042940  50.7224910  61.4219000  64.6852180  51.2670600
  61.0680490  66.0798010  50.7960970  59.7836300  66.2503390  35.6658060
  59.7746400  66.9833080  35.0502570  58.8634660  66.0034970  35.7585020
  68.3237760  54.5926040  36.8949270  67.6950920  54.6971710  36.1807500
  67.8289680  54.8122820  37.6843150  62.7695900  66.3131630  34.3283250
  62.8707880  66.1095620  33.3985230  61.8697640  66.0589910  34.5331030
  61.4114010  68.8317950  39.0230920  61.6655510  68.7939340  38.1010290
  60.4626490  68.7051280  39.0159170  69.1244580  54.5076650  47.1528070
  68.6218180  55.2482050  47.4921880  69.9401240  54.8960650  46.8364860
  67.4166590  59.7509830  40.5989430  66.4756730  59.7660060  40.7737120
  67.7310660  58.9645790  41.0449730  69.4192170  66.9218680  42.2743690
  69.5439590  67.7449850  42.7467500  70.2857730  66.7109410  41.9267840
  56.8909700  69.0149890  41.9460820  57.6272180  68.4665350  42.2169390
  57.2750620  69.8805900  41.8066810  60.0012010  68.1880200  33.7686390
  60.7940620  68.4769030  33.3168180  59.4816360  67.7572370  33.0898870
  64.7332610  64.3075830  51.0821810  64.1270770  64.3307430  50.3417560
  64.4286720  63.5758870  51.6189060  66.1632980  68.0356120  49.6931220
  67.1154730  67.9514140  49.6431460  66.0161200  68.6997830  50.3665010
  69.0542180  67.4150330  35.1923130  68.7683690  67.0015470  34.3777310
  68.8561730  68.3438040  35.0723650  60.5189410  63.4083610  33.6328740
  60.4140050  62.7935960  34.3590120  60.3513630  62.8849500  32.8491750
  63.7592140  62.4703640  34.2370730  63.2102240  62.9172940  34.8813470
  64.3811400  61.9652890  34.7608400  67.8127080  63.8245740  50.1692990
  68.5536550  64.1621500  49.6660450  67.0499760  63.9937800  49.6162760
  61.9394900  60.4532170  33.3813130  62.4600560  59.7381190  33.0154280
  62.5863300  61.0918040  33.6813640  66.4872740  61.8760570  48.7048200
  66.9013760  62.0305650  49.5538620  65.5523740  62.0015790  48.8673980
  66.9594910  59.2156730  50.7087350  67.5415680  58.4609050  50.6207830
  67.1356680  59.7464170  49.9318830  61.2487970  61.8281050  46.6744130
  61.6676080  62.6713780  46.5020370  60.3296600  61.9653090  46.4450910
  63.5851870  59.5597230  48.0581970  63.7048080  58.9638370  48.7976810
  64.4445870  59.5966920  47.6383270  59.0995390  68.1334060  47.7901860
  58.5616480  68.8580120  47.4710560  59.3529350  67.6564400  46.9999200
  65.1714070  55.7184390  49.5490810  64.4829590  55.0565930  49.4840800
  65.8920090  55.2722660  49.9939270  61.9557600  69.3685270  48.0488510
  61.8816300  70.2720410  48.3560880  61.0536440  69.0497170  48.0210580
  62.5042930  68.5343780  35.6714870  63.3993720  68.8728750  35.6933630
  62.5360560  67.8123190  35.0439150  53.3584890  66.6959860  41.3522130
  53.6887900  65.8280920  41.1200770  53.7875890  66.9018380  42.1827090
  53.8475100  67.5630450  44.0903760  53.4106090  67.7431250  44.9227910
  54.4152780  68.3205070  43.9485480  69.4837280  67.0647450  48.3781070
  68.8839270  67.1240010  47.6344990  69.6131180  66.1252430  48.5077920
  70.7238730  64.8065270  33.7150780  69.8931690  64.8741920  34.1858010
  70.9010560  65.6969390  33.4117640  70.1795190  61.5512750  36.2184980
  70.9414100  62.1209400  36.3244670  70.1949560  60.9839950  36.9893290
  71.1855160  62.4062850  41.0626910  71.5563990  61.6230170  40.6562880
  71.8257090  63.0951950  40.8844210  68.1688920  63.7899430  46.4757230
  67.3548760  64.2196590  46.7383020  68.5763120  64.4017840  45.8626280
  70.2314360  61.8447120  33.3757500  70.5063200  62.7526000  33.2476720
  70.0425100  61.7809650  34.3119490  66.6289970  54.8691970  34.6711130
  67.0474850  54.6822950  33.8307790  66.3226030  54.0171020  34.9814060
  70.1279700  59.7816110  38.3686930  69.7523300  59.0144040  37.9368220
  69.3982820  60.1638810  38.8561860  69.5179320  58.9287630  48.0026450
  69.2865410  58.7000380  47.1024400  69.7783870  59.8487180  47.9571340
  67.9567390  54.1544060  50.7806150  68.8337570  54.1627460  51.1640150
  67.9688230  53.4174900  50.1698500  69.4030660  58.0073600  41.6694170
  69.9268140  57.5136250  41.0384340  69.9890080  58.1423960  42.4141740
  68.8930630  57.2646950  37.6086580  69.3889750  57.0317820  38.3935460
  68.6946700  56.4258790  37.1924220  70.3217790  55.9007900  40.1424260
  70.2117070  55.7463940  41.0806530  71.0825380  55.3728840  39.8999670
  71.2108060  53.7315820  33.3830400  72.1357370  53.5997000  33.1748690
  71.1883850  53.8108640  34.3366850  71.2846550  54.5026480  36.0087110
  70.4898050  54.4371600  36.5380020  71.4889830  55.4377120  35.9972460
  68.2264970  68.5418030  40.0025500  68.8224040  68.2202600  39.3259920
  68.4843120  68.0689850  40.7938770  59.8333570  66.5295530  45.7525850
  59.5924930  66.7970090  44.8656370  60.7736210  66.7001260  45.8076710
  64.6762550  52.6498280  49.1474650  65.2902960  52.9677570  48.4855730
  65.2212110  52.1646870  49.7670510  71.0937730  68.5489910  46.5536490
  70.5996010  68.9458780  45.8363620  70.4851020  67.9239120  46.9473770
  55.9715570  67.9198190  47.2713910  55.3775890  67.7882890  48.0103950
  55.9639410  67.0836330  46.8056010  68.7777180  69.1913330  43.8323230
  68.3180150  69.9429140  43.4581250  68.1489640  68.4719800  43.7738030
  59.2072900  67.5001570  43.0071360  59.7237920  66.8888930  42.4819620
  59.8570280  68.0030350  43.4982370  61.9468400  68.3910060  43.8340340
  62.2346210  68.1364360  42.9573350  62.4591620  67.8387420  44.4245910
  69.5805050  52.4638600  40.4694760  69.5193450  51.5199820  40.3225780
  70.3597080  52.5718690  41.0148220  53.8857800  68.6030960  39.4318710
  53.7179840  67.9701640  40.1300600  53.0192310  68.8090360  39.0812900
  68.6959210  51.6151020  36.4376230  68.8909840  52.5134470  36.7043660
  67.9089080  51.3838100  36.9309180  62.0140760  69.3126160  51.2008540
  62.9408070  69.0770430  51.2444500  61.9991190  70.1398160  50.7194570
  70.2485820  68.8551730  38.1982790  70.4238010  68.1689470  37.5543710
  69.5507390  69.3798780  37.8059460  58.0913470  69.2446570  35.7518100
  58.8232290  68.9605850  35.2041990  58.3507140  69.0059850  36.6417480
  68.5818320  68.5396020  51.0249580  69.3743640  68.0445250  50.8175540
  68.8751470  69.2186160  51.6325190  64.7077980  59.4116960  21.9065630
  64.6272030  58.4971570  21.6357340  64.2942400  59.9084030  21.2005340
  62.8396020  61.1895980  23.7874900  62.0638120  60.7096420  24.0773470
  63.4908950  60.5101630  23.6131060  56.8561850  61.5015790  24.6650660
  56.0246730  61.2464500  25.0647170  57.4642830  61.5726560  25.4008580
  66.8603450  65.5956170  22.5674030  66.3984980  64.8243410  22.8961200
  67.6729000  65.6222240  23.0726480  56.8363110  65.5355880  24.8608680
  57.1391150  64.6453620  24.6818900  57.5806700  66.0926100  24.6330930
  53.2286810  59.0623330  24.3332750  53.8002920  58.2945530  24.3336390
  53.2288350  59.3612090  23.4239360  63.0866760  67.8814180  22.1878020
  62.4678200  68.3371680  21.6172460  63.9418540  68.0365640  21.7867720
  62.2805010  63.8653170  23.7945060  62.2113290  62.9243110  23.6334190
  63.0424870  63.9554580  24.3667630  63.3110180  56.6723550  24.0213990
  63.6875000  55.7995430  23.9087660  63.2129690  57.0082250  23.1304430
  67.0934300  54.1673990  20.9542330  67.9143920  53.6770560  20.9967810
  67.1268380  54.7571650  21.7074170  59.2822920  58.0135550  23.8156610
  59.7901140  58.5116520  24.4561630  59.8136160  57.2370750  23.6395970
  71.3833850  56.1840740  27.5185960  70.6786020  56.5722450  27.0001070
  71.6491770  56.8791030  28.1206890  63.9530110  62.7653420  19.5809930
  63.3347380  63.2302870  19.0172650  64.4653360  63.4580900  19.9979440
  58.8161870  62.2929290  26.2593530  58.4831250  62.9198210  26.9014600
  58.9928550  62.8191170  25.4795200  67.3295780  56.1074370  23.7269870
  66.6251350  56.3959260  24.3072980  67.6907940  56.9174480  23.3669430
  58.0280970  64.2610090  28.0742710  58.6454970  64.9361170  27.7927160
  57.1674090  64.6698070  27.9830210  53.3213310  63.4509950  16.9549560
  52.9441290  63.9397050  16.2234460  53.5786380  64.1235230  17.5856090
  68.9458560  65.7249500  25.9897350  68.2622080  66.3948610  25.9814020
  69.4852850  65.9230150  25.2242210  70.3982700  55.5529160  24.1179080
  69.4507610  55.5868140  24.2494510  70.7232690  56.3668110  24.5028440
  60.9302240  51.8526340  22.4135070  61.2377220  51.2973230  21.6970570
  60.0002940  51.9870800  22.2308060  66.4817300  67.5693630  24.7042530
  66.4944460  67.1655920  23.8364790  65.9292520  68.3440920  24.6003960
  67.7762720  64.2909850  19.7932700  67.6659050  63.3484180  19.9182120
  67.7730970  64.6525490  20.6795460  65.8802740  62.4723470  26.0325140
  66.2971530  62.2583580  25.1978600  66.6042560  62.7296260  26.6033760
  63.3183000  59.9175170  19.1495190  62.3912280  59.8512550  19.3783660
  63.4707820  60.8555300  19.0350430  63.3052080  56.1892170  16.1462350
  62.3655750  56.3506130  16.2314810  63.6235340  56.9077850  15.5998340
  69.8264840  60.8710690  26.1241380  68.9983470  60.9403780  25.6491510
  70.4215320  61.4565000  25.6557210  67.3480290  61.4795470  19.6530440
  66.7292710  61.1415020  19.0056740  67.3304740  60.8355230  20.3609630
  66.7906850  57.6580010  27.0696250  66.3778030  58.4833720  27.3236240
  66.0582800  57.0725050  26.8772610  58.9239640  60.4439910  21.9314920
  58.5196640  59.7317160  21.4360820  59.0102760  60.0993150  22.8202960
  59.3921340  64.1307470  24.0954130  59.0949630  63.5252940  23.4161910
  60.3421160  64.1684780  23.9843490  57.6368260  57.2183120  25.7113960
  58.1882850  57.3278460  24.9367210  58.1511770  57.5920720  26.4269190
  67.4806950  67.7039340  27.7577230  67.0037510  68.5111530  27.5649840
  66.7968740  67.0517670  27.9103440  58.4839770  63.8689160  30.7461930
  57.5868300  64.0929130  30.9935330  58.5092640  63.9924100  29.7973330
  65.5244990  60.7182280  16.6603190  65.9638270  59.8804710  16.5141010
  66.2373410  61.3511680  16.7467330  57.3110990  60.7402480  29.3219300
  57.1718760  61.6125280  29.6906700  56.4292350  60.3975290  29.1767240
  63.6340370  65.6578350  20.6284430  64.0736280  66.4002680  20.2139820
  63.5727260  65.9004920  21.5523390  59.1091340  66.6824180  31.5304450
  59.0806770  67.0867130  30.6632880  58.9456310  65.7534540  31.3676050
  69.1062130  51.9725090  14.9744230  68.7934790  52.0651920  15.8743300
  69.8674600  52.5506120  14.9241660  55.6244270  59.3384890  19.4321570
  55.5041870  60.0646980  18.8202840  55.3145160  58.5687800  18.9549480
  71.0606160  67.4651280  32.8268620  71.5365880  67.9434170  33.5057700
  71.6813320  67.3968770  32.1014120  53.2629640  62.5100030  25.2390210
  53.3410060  62.6448800  24.2945930  53.8771320  61.8015920  25.4318330
  54.5077270  64.2100220  21.6496390  54.1005350  64.3514810  20.7949990
  55.3990280  63.9260380  21.4467600  70.4639410  64.6564130  29.9868630
  70.5902470  64.4176010  29.0685810  70.5060790  63.8248670  30.4590710
  64.3256150  68.3592130  28.5563440  64.8400820  68.2700140  29.3585870
  63.4825230  68.7051830  28.8491350  66.3010550  68.6447470  17.9847440
  66.1411690  68.3550410  18.8829270  66.1357260  67.8687600  17.4492670
  58.7798930  68.4246000  19.7619060  58.6041410  67.5081540  19.5486860
  57.9254670  68.7833290  20.0016860  66.0036680  66.1535030  16.5445440
  65.3101840  66.1512320  15.8847720  66.7459540  65.7294350  16.1139610
  65.5686610  67.7797740  20.6193930  66.0243560  66.9987120  20.9332550
  65.9079130  68.4904560  21.1635110  70.3163420  56.7096590  30.9518370
  69.7007690  57.2176260  30.4233830  69.9959840  55.8094920  30.8944310
  53.3189160  63.5514200  27.7784670  53.4820200  63.0819560  26.9604040
  53.7841610  63.0437760  28.4433510  58.0907930  52.6819960  22.8145240
  57.6476080  53.4629500  22.4829760  58.6492920  53.0049850  23.5216180
  62.3777740  55.5488480  28.4180560  61.9157110  55.7571500  29.2300500
  61.9755850  54.7347830  28.1151230  67.3782250  56.7697430  29.5477220
  66.5275840  56.4703180  29.8686290  67.2184040  57.0139440  28.6361040
  64.4731960  58.2699180  31.6476010  64.7985370  57.4362930  31.3078240
  65.2612290  58.7927700  31.7954340  61.2066750  52.3030660  17.6951070
  60.5820930  52.2990530  18.4204380  61.1196870  51.4361620  17.2987040
  60.1283830  53.2267290  24.6734840  60.4256160  54.1330120  24.5926860
  60.6769390  52.7386070  24.0594410  57.8822150  57.8053530  20.5426490
  57.6563070  57.5890700  21.4473110  57.1014680  58.2381990  20.1972460
  65.1119910  57.8116900  19.1417140  64.5128800  58.5352700  18.9580760
  65.6599520  57.7493680  18.3593590  63.7184780  56.4480440  21.1720420
  64.1114350  56.7652640  20.3589110  64.0801630  55.5692320  21.2864940
  52.9419180  56.9801360  14.6053340  52.8593850  57.9232120  14.7468330
  52.5902240  56.8376270  13.7265690  64.3039920  59.0386190  25.2671200
  63.5721040  59.5473000  25.6161300  63.9064260  58.2216170  24.9659980
  60.7417310  55.7140390  23.6723690  60.7453370  55.2730340  22.8228230
  61.6368430  56.0357720  23.7795510  60.8037460  56.7152470  16.6630450
  60.9250280  56.6738950  17.6116270  60.4185970  57.5776620  16.5077180
  64.7665830  54.4919870  24.6794140  64.7838570  54.9428520  25.5235990
  64.5181410  53.5925510  24.8927580  59.8158960  59.0253610  16.0613750
  59.2475860  58.5771860  15.4349660  60.5247960  59.3846390  15.5278900
  54.8928140  62.9265630  29.9380480  54.5082930  62.2859300  30.5363440
  55.2040330  63.6301750  30.5075210  61.0425280  59.7742170  25.4189100
  61.4095410  59.3000740  26.1650440  60.8530340  60.6483740  25.7597440
  58.8324650  58.8150810  27.7373310  58.5281720  59.6942790  27.9623670
  59.7871110  58.8750600  27.7730750  57.3606440  63.0211800  18.3340160
  56.5868700  62.4809420  18.1738880  58.0901070  62.5018410  17.9957920
  68.1194420  62.0177160  24.1266550  68.8393540  62.5132450  23.7362660
  67.9176240  61.3395050  23.4820420  63.5804360  53.4115120  18.2695940
  62.7668970  52.9128290  18.1941250  63.3866310  54.2513370  17.8532290
  63.5013220  62.0886220  30.0135550  63.4350530  61.1681890  29.7593140
  62.8718360  62.1861660  30.7280190  66.2952750  57.7834770  16.5658100
  67.1832370  58.0952000  16.3909440  66.2657840  56.9107020  16.1738680
  57.4043840  62.6892180  21.9718970  57.9222510  61.8860440  21.9175860
  56.9527860  62.6271320  22.8135800  62.2913340  63.9558460  17.2446270
  62.6329040  64.7000690  16.7489590  61.4626050  64.2689580  17.6071100
  58.0901500  60.1137790  31.7684220  57.7901640  60.2594970  30.8712040
  58.8612740  59.5543080  31.6757610  63.4329950  64.9106790  29.7639350
  63.4474490  63.9787750  29.5458260  62.7255050  64.9966550  30.4029120
  68.5667020  59.0946610  16.0337960  68.4830740  59.5260830  15.1834400
  69.2861210  59.5544960  16.4664780  69.6441160  61.5514130  29.1107930
  68.9189350  62.1442910  28.9137320  70.1716620  61.5437670  28.3121300
  69.5954270  65.9488870  18.7620090  68.9530430  65.2944490  19.0363810
  69.2084930  66.3543960  17.9860760  65.1740750  63.2774300  22.6091780
  65.5264570  62.6802430  21.9493150  64.2903080  62.9518530  22.7800030
  61.2604030  64.0371990  20.0162190  61.9475160  64.5841200  20.3969780
  60.4736450  64.5812720  20.0511800  53.3996430  59.6544810  15.5079270
  54.2691280  59.9369610  15.7915190  52.9086750  60.4680680  15.3928080
  60.5631240  61.0418020  19.6287550  61.0194020  61.8523270  19.8547740
  60.2119450  60.7241160  20.4606040  62.8663850  66.5524360  26.8579850
  63.5106070  66.7583740  27.5353270  63.2293290  65.7912760  26.4050700
  64.1395930  64.5556710  25.5757300  64.7818160  63.8549870  25.6889470
  64.6645280  65.3355150  25.3954190  67.9851650  64.8405330  15.2996440
  67.7589230  64.1235770  15.8921080  67.5947850  64.5917770  14.4618190
  65.9133550  65.3551610  28.7793360  66.2489790  65.9418300  29.4571280
  64.9933890  65.2244320  29.0091150  53.7667680  68.8672190  16.0740900
  54.1265320  69.4661530  15.4198170  53.6260020  69.4132080  16.8475930
  67.5667900  62.7577270  16.9610600  67.2789600  63.2189960  17.7488480
  68.3620070  62.2975040  17.2294820  53.7509540  67.1327050  30.5483300
  53.8600660  66.1921790  30.4078690  53.0990100  67.3981800  29.8997030
  61.7422130  65.4042940  31.9481420  61.4219000  64.6852180  32.4927110
  61.0680490  66.0798010  32.0217480  59.7836300  66.2503390  16.8914570
  59.7746400  66.9833080  16.2759080  58.8634660  66.0034970  16.9841530
  55.3842940  61.4718280  17.6361330  54.7770890  62.2117180  17.6456630
  55.8592290  61.5617640  16.8099530  64.9575730  55.6369100  27.3118220
  65.3256550  54.8164310  27.6397790  64.0973930  55.6970990  27.7273870
  68.3237760  54.5926040  18.1205780  67.6950920  54.6971710  17.4064010
  67.8289680  54.8122820  18.9099660  62.7695900  66.3131630  15.5539760
  62.8707880  66.1095620  14.6241740  61.8697640  66.0589910  15.7587540
  60.2921790  56.8711990  19.5363660  59.5837940  57.3398330  19.9777270
  60.5766270  56.2134000  20.1708850  61.9177720  58.2908690  27.5356190
  62.4162970  58.7654510  28.2008040  62.0600670  57.3672210  27.7426220
  64.3237220  53.5962650  20.9759450  64.2005000  53.6148780  20.0268960
  65.2721780  53.6441590  21.0957850  61.4114010  68.8317950  20.2487430
  61.6655510  68.7939340  19.3266800  60.4626490  68.7051280  20.2415680
  58.4956810  55.1797070  16.9114370  59.3447340  55.6167220  16.8454560
  58.1288080  55.4917330  17.7386430  69.1244580  54.5076650  28.3784580
  68.6218180  55.2482050  28.7178390  69.9401240  54.8960650  28.0621370
  67.4166590  59.7509830  21.8245940  66.4756730  59.7660060  21.9993630
  67.7310660  58.9645790  22.2706240  57.3948230  61.4329430  15.3849900
  58.1611500  61.3210790  15.9475330  57.4722920  60.7367400  14.7326670
  56.0894990  58.8654500  16.0682790  56.1698580  57.9182010  16.1800190
  56.9814740  59.1961380  16.1743450  69.4192170  66.9218680  23.5000200
  69.5439590  67.7449850  23.9724010  70.2857730  66.7109410  23.1524350
  56.8909700  69.0149890  23.1717330  57.6272180  68.4665350  23.4425900
  57.2750620  69.8805900  23.0323320  53.7755180  65.0823460  19.0458840
  52.8494960  65.3244600  19.0364250  54.2411610  65.9097720  18.9243590
  55.8967980  68.1995960  32.3602910  56.6980710  68.5208010  32.7738310
  55.3819800  67.8391540  33.0822820  60.0012010  68.1880200  14.9942900
  60.7940620  68.4769030  14.5424690  59.4816360  67.7572370  14.3155380
  64.7332610  64.3075830  32.3078320  64.1270770  64.3307430  31.5674070
  64.4286720  63.5758870  32.8445570  66.1632980  68.0356120  30.9187730
  67.1154730  67.9514140  30.8687970  66.0161200  68.6997830  31.5921520
  69.0542180  67.4150330  16.4179640  68.7683690  67.0015470  15.6033820
  68.8561730  68.3438040  16.2980160  60.5189410  63.4083610  14.8585250
  60.4140050  62.7935960  15.5846630  60.3513630  62.8849500  14.0748260
  60.6703730  62.0940410  30.8374480  59.9049400  62.6625410  30.7529150
  60.8519690  61.8016620  29.9442710  63.7592140  62.4703640  15.4627240
  63.2102240  62.9172940  16.1069980  64.3811400  61.9652890  15.9864910
  67.8127080  63.8245740  31.3949500  68.5536550  64.1621500  30.8916960
  67.0499760  63.9937800  30.8419270  59.4267260  61.4294560  17.3592540
  59.8483680  61.2634430  18.2023930  59.5518100  60.6194790  16.8647680
  61.9394900  60.4532170  14.6069640  62.4600560  59.7381190  14.2410790
  62.5863300  61.0918040  14.9070150  66.4872740  61.8760570  29.9304710
  66.9013760  62.0305650  30.7795130  65.5523740  62.0015790  30.0930490
  66.9594910  59.2156730  31.9343860  67.5415680  58.4609050  31.8464340
  67.1356680  59.7464170  31.1575340  61.2487970  61.8281050  27.9000640
  61.6676080  62.6713780  27.7276880  60.3296600  61.9653090  27.6707420
  63.5851870  59.5597230  29.2838480  63.7048080  58.9638370  30.0233320
  64.4445870  59.5966920  28.8639780  65.9239770  60.1134420  27.8600990
  65.3974990  60.6377040  27.2566130  66.2671110  60.7461810  28.4910720
  58.3226160  57.5027790  14.3050700  58.1215220  56.6395150  14.6664040
  58.1518210  57.4161150  13.3672300  59.0995390  68.1334060  29.0158370
  58.5616480  68.8580120  28.6967070  59.3529350  67.6564400  28.2255710
  65.8014470  52.3136020  16.8337580  66.0816760  51.4703920  17.1897000
  65.0280200  52.5459130  17.3476330  57.1208960  54.6028410  14.2928580
  57.4234860  54.6095840  13.3847730  57.8603550  54.2526270  14.7896240
  61.9557600  69.3685270  29.2745020  61.8816300  70.2720410  29.5817390
  61.0536440  69.0497170  29.2467090  60.3393890  53.5463030  15.2784780
  59.9915890  52.8687020  14.6987230  60.5406660  53.0852540  16.0928170
  62.5042930  68.5343780  16.8971380  63.3993720  68.8728750  16.9190140
  62.5360560  67.8123190  16.2695660  56.1439090  63.9070830  15.1258380
  56.5813960  64.4500500  15.7815960  56.6286820  63.0817780  15.1354720
  53.3584890  66.6959860  22.5778640  53.6887900  65.8280920  22.3457280
  53.7875890  66.9018380  23.4083600  57.9546810  65.0268870  20.2380610
  57.6542350  64.9033840  21.1384520  57.8484300  64.1677460  19.8296340
  53.8475100  67.5630450  25.3160270  53.4106090  67.7431250  26.1484420
  54.4152780  68.3205070  25.1741990  69.4837280  67.0647450  29.6037580
  68.8839270  67.1240010  28.8601500  69.6131180  66.1252430  29.7334430
  70.7238730  64.8065270  14.9407290  69.8931690  64.8741920  15.4114520
  70.9010560  65.6969390  14.6374150  70.1795190  61.5512750  17.4441490
  70.9414100  62.1209400  17.5501180  70.1949560  60.9839950  18.2149800
  53.6799530  60.0750680  21.6749150  53.0248370  59.8062320  21.0308850
  54.5177480  59.9655160  21.2251130  71.1855160  62.4062850  22.2883420
  71.5563990  61.6230170  21.8819390  71.8257090  63.0951950  22.1100720
  68.1688920  63.7899430  27.7013740  67.3548760  64.2196590  27.9639530
  68.5763120  64.4017840  27.0882790  70.2314360  61.8447120  14.6014010
  70.5063200  62.7526000  14.4733230  70.0425100  61.7809650  15.5376000
  66.6289970  54.8691970  15.8967640  67.0474850  54.6822950  15.0564300
  66.3226030  54.0171020  16.2070570  70.1279700  59.7816110  19.5943440
  69.7523300  59.0144040  19.1624730  69.3982820  60.1638810  20.0818370
  54.7175460  60.4603250  26.2152490  55.0848500  60.3730650  27.0948510
  54.1486280  59.6969800  26.1159350  69.5179320  58.9287630  29.2282960
  69.2865410  58.7000380  28.3280910  69.7783870  59.8487180  29.1827850
  67.9567390  54.1544060  32.0062660  68.8337570  54.1627460  32.3896660
  67.9688230  53.4174900  31.3955010  52.8937610  57.2849610  17.6174480
  51.9901690  57.5479810  17.4426140  53.3778230  57.5560780  16.8374440
  69.4030660  58.0073600  22.8950680  69.9268140  57.5136250  22.2640850
  69.9890080  58.1423960  23.6398250  69.5820380  58.0913470  26.4170230
  68.6323090  58.0577010  26.5315220  69.7633390  59.0013580  26.1820000
  55.4364820  56.3415150  15.5268860  56.1456520  55.9198370  15.0416140
  54.7204760  56.4090380  14.8952210  55.0838980  52.3954480  14.5671510
  55.8067110  52.9363420  14.8852730  55.3563500  52.1217900  13.6913050
  68.8930630  57.2646950  18.8343090  69.3889750  57.0317820  19.6191970
  68.6946700  56.4258790  18.4180730  70.3217790  55.9007900  21.3680770
  70.2117070  55.7463940  22.3063040  71.0825380  55.3728840  21.1256180
  71.2108060  53.7315820  14.6086910  72.1357370  53.5997000  14.4005200
  71.1883850  53.8108640  15.5623360  71.2846550  54.5026480  17.2343620
  70.4898050  54.4371600  17.7636530  71.4889830  55.4377120  17.2228970
  68.2264970  68.5418030  21.2282010  68.8224040  68.2202600  20.5516430
  68.4843120  68.0689850  22.0195280  56.1327540  64.9735940  31.3772640
  56.0897170  64.6028850  32.2587100  56.2638550  65.9113510  31.5174460
  59.8333570  66.5295530  26.9782360  59.5924930  66.7970090  26.0912880
  60.7736210  66.7001260  27.0333220  71.0937730  68.5489910  27.7793000
  70.5996010  68.9458780  27.0620130  70.4851020  67.9239120  28.1730280
  55.9715570  67.9198190  28.4970420  55.3775890  67.7882890  29.2360460
  55.9639410  67.0836330  28.0312520  68.7777180  69.1913330  25.0579740
  68.3180150  69.9429140  24.6837760  68.1489640  68.4719800  24.9994540
  55.6027800  65.2856570  27.4478460  54.8761860  64.6661860  27.3804410
  55.6636950  65.6797180  26.5776540  59.2072900  67.5001570  24.2327870
  59.7237920  66.8888930  23.7076130  59.8570280  68.0030350  24.7238880
  61.9468400  68.3910060  25.0596850  62.2346210  68.1364360  24.1829860
  62.4591620  67.8387420  25.6502420  67.7166480  52.8323360  23.6842450
  68.1574570  52.7768460  22.8364050  67.4474070  53.7481370  23.7552630
  69.5805050  52.4638600  21.6951270  69.5193450  51.5199820  21.5482290
  70.3597080  52.5718690  22.2404730  53.8857800  68.6030960  20.6575220
  53.7179840  67.9701640  21.3557110  53.0192310  68.8090360  20.3069410
  61.0499630  54.5487010  21.1509390  60.2374140  54.1743900  20.8105270
  61.5541270  53.7932090  21.4530580  65.5524610  51.2129460  22.3892460
  66.1553980  51.7849670  22.8640980  64.8117600  51.7768900  22.1666360
  68.6959210  51.6151020  17.6632740  68.8909840  52.5134470  17.9300170
  67.9089080  51.3838100  18.1565690  55.4920500  67.2964190  18.1025360
  54.9668120  67.6772220  17.3987320  55.4165080  67.9214960  18.8235070
  56.8810970  52.9611790  16.7009050  57.4103730  52.1741590  16.5717000
  57.5139290  53.6402980  16.9344580  59.0748810  52.6986930  19.7554440
  58.4451550  51.9974240  19.9224570  58.5353950  53.4591060  19.5387600
  62.0140760  69.3126160  32.4265050  62.9408070  69.0770430  32.4701010
  61.9991190  70.1398160  31.9451080  70.2485820  68.8551730  19.4239300
  70.4238010  68.1689470  18.7800220  69.5507390  69.3798780  19.0315970
  58.0913470  69.2446570  16.9774610  58.8232290  68.9605850  16.4298500
  58.3507140  69.0059850  17.8673990  57.2528260  65.3611300  16.9820940
  56.6237140  65.8296400  17.5306770  57.3676090  64.5160520  17.4167130
  68.5818320  68.5396020  32.2506090  69.3743640  68.0445250  32.0432050
  68.8751470  69.2186160  32.8581700  64.7077980  59.4116960   3.1322140
  64.6272030  58.4971570   2.8613850  64.2942400  59.9084030   2.4261850
  62.8396020  61.1895980   5.0131410  62.0638120  60.7096420   5.3029980
  63.4908950  60.5101630   4.8387570  56.8561850  61.5015790   5.8907170
  56.0246730  61.2464500   6.2903680  57.4642830  61.5726560   6.6265090
  66.8603450  65.5956170   3.7930540  66.3984980  64.8243410   4.1217710
  67.6729000  65.6222240   4.2982990  56.8363110  65.5355880   6.0865190
  57.1391150  64.6453620   5.9075410  57.5806700  66.0926100   5.8587440
  53.2286810  59.0623330   5.5589260  53.8002920  58.2945530   5.5592900
  53.2288350  59.3612090   4.6495870  63.0866760  67.8814180   3.4134530
  62.4678200  68.3371680   2.8428970  63.9418540  68.0365640   3.0124230
  62.2805010  63.8653170   5.0201570  62.2113290  62.9243110   4.8590700
  63.0424870  63.9554580   5.5924140  54.4711680  54.4707690   7.3458190
  54.2914520  53.5733440   7.6260950  54.0691760  55.0179560   8.0205140
  63.3110180  56.6723550   5.2470500  63.6875000  55.7995430   5.1344170
  63.2129690  57.0082250   4.3560940  67.0934300  54.1673990   2.1798840
  67.9143920  53.6770560   2.2224320  67.1268380  54.7571650   2.9330680
  55.0898350  56.9668190   5.9540530  55.7708460  57.2306560   6.5727930
  54.7746400  56.1269060   6.2878540  59.2822920  58.0135550   5.0413120
  59.7901140  58.5116520   5.6818140  59.8136160  57.2370750   4.8652480
  71.3833850  56.1840740   8.7442470  70.6786020  56.5722450   8.2257580
  71.6491770  56.8791030   9.3463400  57.5659020  52.6534110   9.3076540
  57.5677460  53.1706500   8.5022440  56.7363330  52.1764290   9.2846470
  58.8161870  62.2929290   7.4850040  58.4831250  62.9198210   8.1271110
  58.9928550  62.8191170   6.7051710  67.3295780  56.1074370   4.9526380
  66.6251350  56.3959260   5.5329490  67.6907940  56.9174480   4.5925940
  57.2474350  54.3644070   7.3146990  57.5891160  55.2086120   7.0200860
  56.3090160  54.5127810   7.4312330  58.0280970  64.2610090   9.2999220
  58.6454970  64.9361170   9.0183670  57.1674090  64.6698070   9.2086720
  68.9458560  65.7249500   7.2153860  68.2622080  66.3948610   7.2070530
  69.4852850  65.9230150   6.4498720  70.3982700  55.5529160   5.3435590
  69.4507610  55.5868140   5.4751020  70.7232690  56.3668110   5.7284950
  60.9302240  51.8526340   3.6391580  61.2377220  51.2973230   2.9227080
  60.0002940  51.9870800   3.4564570  66.4817300  67.5693630   5.9299040
  66.4944460  67.1655920   5.0621300  65.9292520  68.3440920   5.8260470
  65.8802740  62.4723470   7.2581650  66.2971530  62.2583580   6.4235110
  66.6042560  62.7296260   7.8290270  69.8264840  60.8710690   7.3497890
  68.9983470  60.9403780   6.8748020  70.4215320  61.4565000   6.8813720
  66.7906850  57.6580010   8.2952760  66.3778030  58.4833720   8.5492750
  66.0582800  57.0725050   8.1029120  58.9239640  60.4439910   3.1571430
  58.5196640  59.7317160   2.6617330  59.0102760  60.0993150   4.0459470
  59.3921340  64.1307470   5.3210640  59.0949630  63.5252940   4.6418420
  60.3421160  64.1684780   5.2100000  57.6368260  57.2183120   6.9370470
  58.1882850  57.3278460   6.1623720  58.1511770  57.5920720   7.6525700
  67.4806950  67.7039340   8.9833740  67.0037510  68.5111530   8.7906350
  66.7968740  67.0517670   9.1359950  58.4839770  63.8689160  11.9718440
  57.5868300  64.0929130  12.2191840  58.5092640  63.9924100  11.0229840
  57.3110990  60.7402480  10.5475810  57.1718760  61.6125280  10.9163210
  56.4292350  60.3975290  10.4023750  63.6340370  65.6578350   1.8540940
  64.0736280  66.4002680   1.4396330  63.5727260  65.9004920   2.7779900
  59.1091340  66.6824180  12.7560960  59.0806770  67.0867130  11.8889390
  58.9456310  65.7534540  12.5932560  71.0606160  67.4651280  14.0525130
  71.5365880  67.9434170  14.7314210  71.6813320  67.3968770  13.3270630
  53.2629640  62.5100030   6.4646720  53.3410060  62.6448800   5.5202440
  53.8771320  61.8015920   6.6574840  54.5077270  64.2100220   2.8752900
  54.1005350  64.3514810   2.0206500  55.3990280  63.9260380   2.6724110
  70.4639410  64.6564130  11.2125140  70.5902470  64.4176010  10.2942320
  70.5060790  63.8248670  11.6847220  64.3256150  68.3592130   9.7819950
  64.8400820  68.2700140  10.5842380  63.4825230  68.7051830  10.0747860
  65.5686610  67.7797740   1.8450440  66.0243560  66.9987120   2.1589060
  65.9079130  68.4904560   2.3891620  70.3163420  56.7096590  12.1774880
  69.7007690  57.2176260  11.6490340  69.9959840  55.8094920  12.1200820
  53.3189160  63.5514200   9.0041180  53.4820200  63.0819560   8.1860550
  53.7841610  63.0437760   9.6690020  58.0907930  52.6819960   4.0401750
  57.6476080  53.4629500   3.7086270  58.6492920  53.0049850   4.7472690
  62.3777740  55.5488480   9.6437070  61.9157110  55.7571500  10.4557010
  61.9755850  54.7347830   9.3407740  67.3782250  56.7697430  10.7733730
  66.5275840  56.4703180  11.0942800  67.2184040  57.0139440   9.8617550
  64.4731960  58.2699180  12.8732520  64.7985370  57.4362930  12.5334750
  65.2612290  58.7927700  13.0210850  60.1283830  53.2267290   5.8991350
  60.4256160  54.1330120   5.8183370  60.6769390  52.7386070   5.2850920
  57.8822150  57.8053530   1.7683000  57.6563070  57.5890700   2.6729620
  57.1014680  58.2381990   1.4228970  60.3221360  58.7039110  12.4343270
  60.2264960  57.7633840  12.2843670  61.1653340  58.9254180  12.0391340
  63.7184780  56.4480440   2.3976930  64.1114350  56.7652640   1.5845620
  64.0801630  55.5692320   2.5121450  55.4531900  55.1152780  10.5877050
  55.0595290  55.9627990  10.7949830  54.7650300  54.4779150  10.7785690
  62.0276950  55.1987750  13.6573790  61.3375270  55.0059950  14.2919880
  62.7709250  55.4822390  14.1898090  52.7548950  53.0381240   4.6207130
  52.4662000  53.6084100   5.3332110  53.4994710  52.5585690   4.9838360
  64.3039920  59.0386190   6.4927710  63.5721040  59.5473000   6.8417810
  63.9064260  58.2216170   6.1916490  60.7417310  55.7140390   4.8980200
  60.7453370  55.2730340   4.0484740  61.6368430  56.0357720   5.0052020
  56.5919690  55.5966880   3.8574410  56.2519740  56.0742110   4.6141460
  55.8297010  55.1432000   3.4975510  64.7665830  54.4919870   5.9050650
  64.7838570  54.9428520   6.7492500  64.5181410  53.5925510   6.1184090
  68.1936580  51.9052050  11.7437030  68.5182350  51.1741710  12.2695010
  68.2293090  51.5865690  10.8418020  54.8928140  62.9265630  11.1636990
  54.5082930  62.2859300  11.7619950  55.2040330  63.6301750  11.7331720
  61.0425280  59.7742170   6.6445610  61.4095410  59.3000740   7.3906950
  60.8530340  60.6483740   6.9853950  53.9065770  54.5185860   2.7739080
  53.6212690  54.1541530   3.6117700  53.8444630  53.7866320   2.1602220
  58.8324650  58.8150810   8.9629820  58.5281720  59.6942790   9.1880180
  59.7871110  58.8750600   8.9987260  68.1194420  62.0177160   5.3523060
  68.8393540  62.5132450   4.9619170  67.9176240  61.3395050   4.7076930
  63.5013220  62.0886220  11.2392060  63.4350530  61.1681890  10.9849650
  62.8718360  62.1861660  11.9536700  57.4043840  62.6892180   3.1975480
  57.9222510  61.8860440   3.1432370  56.9527860  62.6271320   4.0392310
  54.8888380  59.6553550  10.1101180  54.5303320  60.3207400  10.6974520
  54.5942940  58.8237100  10.4813800  58.0901500  60.1137790  12.9940730
  57.7901640  60.2594970  12.0968550  58.8612740  59.5543080  12.9014120
  63.4329950  64.9106790  10.9895860  63.4474490  63.9787750  10.7714770
  62.7255050  64.9966550  11.6285630  69.6441160  61.5514130  10.3364440
  68.9189350  62.1442910  10.1393830  70.1716620  61.5437670   9.5377810
  65.1740750  63.2774300   3.8348290  65.5264570  62.6802430   3.1749660
  64.2903080  62.9518530   4.0056540  62.8663850  66.5524360   8.0836360
  63.5106070  66.7583740   8.7609780  63.2293290  65.7912760   7.6307210
  64.1395930  64.5556710   6.8013810  64.7818160  63.8549870   6.9145980
  64.6645280  65.3355150   6.6210700  65.9133550  65.3551610  10.0049870
  66.2489790  65.9418300  10.6827790  64.9933890  65.2244320  10.2347660
  53.4636950  53.1446790  10.7873280  52.7495470  53.3443710  11.3925890
  53.8831990  52.3686360  11.1588080  53.7509540  67.1327050  11.7739810
  53.8600660  66.1921790  11.6335200  53.0990100  67.3981800  11.1253540
  61.7422130  65.4042940  13.1737930  61.4219000  64.6852180  13.7183620
  61.0680490  66.0798010  13.2473990  64.9575730  55.6369100   8.5374730
  65.3256550  54.8164310   8.8654300  64.0973930  55.6970990   8.9530380
  61.9177720  58.2908690   8.7612700  62.4162970  58.7654510   9.4264550
  62.0600670  57.3672210   8.9682730  69.1244580  54.5076650   9.6041090
  68.6218180  55.2482050   9.9434900  69.9401240  54.8960650   9.2877880
  67.4166590  59.7509830   3.0502450  66.4756730  59.7660060   3.2250140
  67.7310660  58.9645790   3.4962750  69.4192170  66.9218680   4.7256710
  69.5439590  67.7449850   5.1980520  70.2857730  66.7109410   4.3780860
  56.8909700  69.0149890   4.3973840  57.6272180  68.4665350   4.6682410
  57.2750620  69.8805900   4.2579830  55.8967980  68.1995960  13.5859420
  56.6980710  68.5208010  13.9994820  55.3819800  67.8391540  14.3079330
  64.7332610  64.3075830  13.5334830  64.1270770  64.3307430  12.7930580
  64.4286720  63.5758870  14.0702080  66.1632980  68.0356120  12.1444240
  67.1154730  67.9514140  12.0944480  66.0161200  68.6997830  12.8178030
  53.6165790  60.6869420  12.5295470  54.1204810  60.1076700  13.1011700
  52.8773210  60.9709650  13.0671840  60.6703730  62.0940410  12.0630990
  59.9049400  62.6625410  11.9785660  60.8519690  61.8016620  11.1699220
  67.8127080  63.8245740  12.6206010  68.5536550  64.1621500  12.1173470
  67.0499760  63.9937800  12.0675780  55.6488870  58.8299010  13.4245540
  55.6894210  58.5312880  14.3330770  56.5034370  59.2306620  13.2653060
  57.5894680  57.4091110  11.3920030  57.0591140  56.9182060  10.7643370
  58.2582750  57.8375310  10.8577960  66.4872740  61.8760570  11.1561220
  66.9013760  62.0305650  12.0051640  65.5523740  62.0015790  11.3187000
  66.9594910  59.2156730  13.1600370  67.5415680  58.4609050  13.0720850
  67.1356680  59.7464170  12.3831850  58.0766980  54.3753480  11.4717320
  57.9823850  53.7574230  10.7468190  57.4964370  55.1019770  11.2447230
  60.8428420  52.9326720   8.5044710  60.3945720  52.9550980   7.6590260
  60.2093620  52.5345740   9.1015010  61.2487970  61.8281050   9.1257150
  61.6676080  62.6713780   8.9533390  60.3296600  61.9653090   8.8963930
  63.5851870  59.5597230  10.5094990  63.7048080  58.9638370  11.2489830
  64.4445870  59.5966920  10.0896290  65.9239770  60.1134420   9.0857500
  65.3974990  60.6377040   8.4822640  66.2671110  60.7461810   9.7167230
  59.0995390  68.1334060  10.2414880  58.5616480  68.8580120   9.9223580
  59.3529350  67.6564400   9.4512220  60.3520640  56.1018580  11.7670810
  60.9420330  55.7934430  12.4548630  59.5340880  55.6298330  11.9230710
  65.1714070  55.7184390  12.0003830  64.4829590  55.0565930  11.9353820
  65.8920090  55.2722660  12.4452290  61.9557600  69.3685270  10.5001530
  61.8816300  70.2720410  10.8073900  61.0536440  69.0497170  10.4723600
  53.3584890  66.6959860   3.8035150  53.6887900  65.8280920   3.5713790
  53.7875890  66.9018380   4.6340110  53.8475100  67.5630450   6.5416780
  53.4106090  67.7431250   7.3740930  54.4152780  68.3205070   6.3998500
  69.4837280  67.0647450  10.8294090  68.8839270  67.1240010  10.0858010
  69.6131180  66.1252430  10.9590940  53.6799530  60.0750680   2.9005660
  53.0248370  59.8062320   2.2565360  54.5177480  59.9655160   2.4507640
  71.1855160  62.4062850   3.5139930  71.5563990  61.6230170   3.1075900
  71.8257090  63.0951950   3.3357230  68.1688920  63.7899430   8.9270250
  67.3548760  64.2196590   9.1896040  68.5763120  64.4017840   8.3139300
  54.7175460  60.4603250   7.4409000  55.0848500  60.3730650   8.3205020
  54.1486280  59.6969800   7.3415860  69.5179320  58.9287630  10.4539470
  69.2865410  58.7000380   9.5537420  69.7783870  59.8487180  10.4084360
  54.2691460  57.3712340  11.3467420  53.3747510  57.3379100  11.6861130
  54.8089010  57.5699130  12.1118670  67.9567390  54.1544060  13.2319170
  68.8337570  54.1627460  13.6153170  67.9688230  53.4174900  12.6211520
  69.4030660  58.0073600   4.1207190  69.9268140  57.5136250   3.4897360
  69.9890080  58.1423960   4.8654760  69.5820380  58.0913470   7.6426740
  68.6323090  58.0577010   7.7571730  69.7633390  59.0013580   7.4076510
  54.7731170  51.6460670   5.6950640  55.4207360  51.0958050   5.2545800
  55.1933010  51.9003820   6.5166450  70.3217790  55.9007900   2.5937280
  70.2117070  55.7463940   3.5319550  71.0825380  55.3728840   2.3512690
  68.6683510  51.8402030   9.0520280  69.3055730  52.4536170   9.4179470
  68.8158400  51.8762690   8.1069510  68.2264970  68.5418030   2.4538520
  68.8224040  68.2202600   1.7772940  68.4843120  68.0689850   3.2451790
  54.5263170  51.8016340   8.4375960  54.1777990  52.2580160   9.2034140
  54.1950870  50.9073470   8.5198390  56.1327540  64.9735940  12.6029150
  56.0897170  64.6028850  13.4843610  56.2638550  65.9113510  12.7430970
  59.8333570  66.5295530   8.2038870  59.5924930  66.7970090   7.3169390
  60.7736210  66.7001260   8.2589730  62.0387990  52.9928220  11.9595380
  61.9776880  53.5850050  12.7090790  62.9788370  52.8854180  11.8145640
  64.6762550  52.6498280  11.5987670  65.2902960  52.9677570  10.9368750
  65.2212110  52.1646870  12.2183530  71.0937730  68.5489910   9.0049510
  70.5996010  68.9458780   8.2876640  70.4851020  67.9239120   9.3986790
  55.1983810  51.3292540  11.7126730  55.7466800  51.1480590  10.9492840
  55.2639120  50.5386650  12.2483040  55.9715570  67.9198190   9.7226930
  55.3775890  67.7882890  10.4616970  55.9639410  67.0836330   9.2569030
  65.4170590  51.2130420   7.9256960  64.5430430  51.5465530   7.7229890
  65.3081340  50.7403600   8.7508830  66.3242570  53.4201290   9.3098680
  65.9955930  52.6053050   8.9300410  67.2724870  53.3771100   9.1864370
  68.7777180  69.1913330   6.2836250  68.3180150  69.9429140   5.9094270
  68.1489640  68.4719800   6.2251050  55.6027800  65.2856570   8.6734970
  54.8761860  64.6661860   8.6060920  55.6636950  65.6797180   7.8033050
  59.2072900  67.5001570   5.4584380  59.7237920  66.8888930   4.9332640
  59.8570280  68.0030350   5.9495390  61.9468400  68.3910060   6.2853360
  62.2346210  68.1364360   5.4086370  62.4591620  67.8387420   6.8758930
  63.1645410  52.1300260   6.8649870  62.3817200  52.6045760   7.1446630
  62.8708340  51.2255090   6.7563050  67.7166480  52.8323360   4.9098960
  68.1574570  52.7768460   4.0620560  67.4474070  53.7481370   4.9809140
  69.5805050  52.4638600   2.9207780  69.5193450  51.5199820   2.7738800
  70.3597080  52.5718690   3.4661240  53.8857800  68.6030960   1.8831730
  53.7179840  67.9701640   2.5813620  53.0192310  68.8090360   1.5325920
  61.0499630  54.5487010   2.3765900  60.2374140  54.1743900   2.0361780
  61.5541270  53.7932090   2.6787090  65.5524610  51.2129460   3.6148970
  66.1553980  51.7849670   4.0897490  64.8117600  51.7768900   3.3922870
  62.0140760  69.3126160  13.6521560  62.9408070  69.0770430  13.6957520
  61.9991190  70.1398160  13.1707590  59.2004370  51.9770910  13.4163440
  58.9188640  52.4804510  12.6524260  59.5824070  51.1792660  13.0505570
  65.8019830  51.3924490  13.9943910  65.6885280  51.7119100  14.8895430
  66.6189570  51.7937000  13.6981190  68.5818320  68.5396020  13.4762600
  69.3743640  68.0445250  13.2688560  68.8751470  69.2186160  14.0838210
  64.7077980  40.6373470  78.2296100  64.6272030  39.7228080  77.9587810
  64.2942400  41.1340540  77.5235810  62.8396020  42.4152490  80.1105370
  62.0638120  41.9352930  80.4003940  63.4908950  41.7358140  79.9361530
  56.8561850  42.7272300  80.9881130  56.0246730  42.4721010  81.3877640
  57.4642830  42.7983070  81.7239050  66.8603450  46.8212680  78.8904500
  66.3984980  46.0499920  79.2191670  67.6729000  46.8478750  79.3956950
  56.8363110  46.7612390  81.1839150  57.1391150  45.8710130  81.0049370
  57.5806700  47.3182610  80.9561400  55.2653800  37.6874190  74.7723520
  54.3770500  38.0290160  74.6703400  55.5494990  37.4874510  73.8804350
  53.2286810  40.2879840  80.6563220  53.8002920  39.5202040  80.6566860
  53.2288350  40.5868600  79.7469830  63.0866760  49.1070690  78.5108490
  62.4678200  49.5628190  77.9402930  63.9418540  49.2622150  78.1098190
  62.2805010  45.0909680  80.1175530  62.2113290  44.1499620  79.9564660
  63.0424870  45.1811090  80.6898100  54.4711680  35.6964200  82.4432150
  54.2914520  34.7989950  82.7234910  54.0691760  36.2436070  83.1179100
  63.3110180  37.8980060  80.3444460  63.6875000  37.0251940  80.2318130
  63.2129690  38.2338760  79.4534900  57.4415190  36.2705690  75.8061900
  57.5481940  37.1709420  76.1130660  56.5307550  36.2223660  75.5156550
  67.0934300  35.3930500  77.2772800  67.9143920  34.9027070  77.3198280
  67.1268380  35.9828160  78.0304640  55.0898350  38.1924700  81.0514490
  55.7708460  38.4563070  81.6701890  54.7746400  37.3525570  81.3852500
  59.2822920  39.2392060  80.1387080  59.7901140  39.7373030  80.7792100
  59.8136160  38.4627260  79.9626440  63.9530110  43.9909930  75.9040400
  63.3347380  44.4559380  75.3403120  64.4653360  44.6837410  76.3209910
  58.8161870  43.5185800  82.5824000  58.4831250  44.1454720  83.2245070
  58.9928550  44.0447680  81.8025670  67.3295780  37.3330880  80.0500340
  66.6251350  37.6215770  80.6303450  67.6907940  38.1430990  79.6899900
  57.2474350  35.5900580  82.4120950  57.5891160  36.4342630  82.1174820
  56.3090160  35.7384320  82.5286290  53.3213310  44.6766460  73.2780030
  52.9441290  45.1653560  72.5464930  53.5786380  45.3491740  73.9086560
  68.9458560  46.9506010  82.3127820  68.2622080  47.6205120  82.3044490
  69.4852850  47.1486660  81.5472680  70.3982700  36.7785670  80.4409550
  69.4507610  36.8124650  80.5724980  70.7232690  37.5924620  80.8258910
  60.9302240  33.0782850  78.7365540  61.2377220  32.5229740  78.0201040
  60.0002940  33.2127310  78.5538530  66.4817300  48.7950140  81.0273000
  66.4944460  48.3912430  80.1595260  65.9292520  49.5697430  80.9234430
  67.7762720  45.5166360  76.1163170  67.6659050  44.5740690  76.2412590
  67.7730970  45.8782000  77.0025930  65.8802740  43.6979980  82.3555610
  66.2971530  43.4840090  81.5209070  66.6042560  43.9552770  82.9264230
  63.3183000  41.1431680  75.4725660  62.3912280  41.0769060  75.7014130
  63.4707820  42.0811810  75.3580900  63.3052080  37.4148680  72.4692820
  62.3655750  37.5762640  72.5545280  63.6235340  38.1334360  71.9228810
  69.8264840  42.0967200  82.4471850  68.9983470  42.1660290  81.9721980
  70.4215320  42.6821510  81.9787680  67.3480290  42.7051980  75.9760910
  66.7292710  42.3671530  75.3287210  67.3304740  42.0611740  76.6840100
  58.9239640  41.6696420  78.2545390  58.5196640  40.9573670  77.7591290
  59.0102760  41.3249660  79.1433430  59.3921340  45.3563980  80.4184600
  59.0949630  44.7509450  79.7392380  60.3421160  45.3941290  80.3073960
  57.6368260  38.4439630  82.0344430  58.1882850  38.5534970  81.2597680
  58.1511770  38.8177230  82.7499660  65.5244990  41.9438790  72.9833660
  65.9638270  41.1061220  72.8371480  66.2373410  42.5768190  73.0697800
  63.6340370  46.8834860  76.9514900  64.0736280  47.6259190  76.5370290
  63.5727260  47.1261430  77.8753860  69.1062130  33.1981600  71.2974700
  68.7934790  33.2908430  72.1973770  69.8674600  33.7762630  71.2472130
  55.6244270  40.5641400  75.7552040  55.5041870  41.2903490  75.1433310
  55.3145160  39.7944310  75.2779950  53.2629640  43.7356540  81.5620680
  53.3410060  43.8705310  80.6176400  53.8771320  43.0272430  81.7548800
  54.5077270  45.4356730  77.9726860  54.1005350  45.5771320  77.1180460
  55.3990280  45.1516890  77.7698070  66.3010550  49.8703980  74.3077910
  66.1411690  49.5806920  75.2059740  66.1357260  49.0944110  73.7723140
  58.7798930  49.6502510  76.0849530  58.6041410  48.7338050  75.8717330
  57.9254670  50.0089800  76.3247330  66.0036680  47.3791540  72.8675910
  65.3101840  47.3768830  72.2078190  66.7459540  46.9550860  72.4370080
  65.5686610  49.0054250  76.9424400  66.0243560  48.2243630  77.2563020
  65.9079130  49.7161070  77.4865580  58.0907930  33.9076470  79.1375710
  57.6476080  34.6886010  78.8060230  58.6492920  34.2306360  79.8446650
  61.2066750  33.5287170  74.0181540  60.5820930  33.5247040  74.7434850
  61.1196870  32.6618130  73.6217510  60.1283830  34.4523800  80.9965310
  60.4256160  35.3586630  80.9157330  60.6769390  33.9642580  80.3824880
  57.8822150  39.0310040  76.8656960  57.6563070  38.8147210  77.7703580
  57.1014680  39.4638500  76.5202930  65.1119910  39.0373410  75.4647610
  64.5128800  39.7609210  75.2811230  65.6599520  38.9750190  74.6824060
  63.7184780  37.6736950  77.4950890  64.1114350  37.9909150  76.6819580
  64.0801630  36.7948830  77.6095410  52.7548950  34.2637750  79.7181090
  52.4662000  34.8340610  80.4306070  53.4994710  33.7842200  80.0812320
  52.9419180  38.2057870  70.9283810  52.8593850  39.1488630  71.0698800
  52.5902240  38.0632780  70.0496160  64.3039920  40.2642700  81.5901670
  63.5721040  40.7729510  81.9391770  63.9064260  39.4472680  81.2890450
  60.7417310  36.9396900  79.9954160  60.7453370  36.4986850  79.1458700
  61.6368430  37.2614230  80.1025980  56.5919690  36.8223390  78.9548370
  56.2519740  37.2998620  79.7115420  55.8297010  36.3688510  78.5949470
  60.8037460  37.9408980  72.9860920  60.9250280  37.8995460  73.9346740
  60.4185970  38.8033130  72.8307650  64.7665830  35.7176380  81.0024610
  64.7838570  36.1685030  81.8466460  64.5181410  34.8182020  81.2158050
  59.8158960  40.2510120  72.3844220  59.2475860  39.8028370  71.7580130
  60.5247960  40.6102900  71.8509370  61.0425280  40.9998680  81.7419570
  61.4095410  40.5257250  82.4880910  60.8530340  41.8740250  82.0827910
  53.9065770  35.7442370  77.8713040  53.6212690  35.3798040  78.7091660
  53.8444630  35.0122830  77.2576180  57.3606440  44.2468310  74.6570630
  56.5868700  43.7065930  74.4969350  58.0901070  43.7274920  74.3188390
  68.1194420  43.2433670  80.4497020  68.8393540  43.7388960  80.0593130
  67.9176240  42.5651560  79.8050890  63.5804360  34.6371630  74.5926410
  62.7668970  34.1384800  74.5171720  63.3866310  35.4769880  74.1762760
  66.2952750  39.0091280  72.8888570  67.1832370  39.3208510  72.7139910
  66.2657840  38.1363530  72.4969150  57.4043840  43.9148690  78.2949440
  57.9222510  43.1116950  78.2406330  56.9527860  43.8527830  79.1366270
  62.2913340  45.1814970  73.5676740  62.6329040  45.9257200  73.0720060
  61.4626050  45.4946090  73.9301570  68.5667020  40.3203120  72.3568430
  68.4830740  40.7517340  71.5064870  69.2861210  40.7801470  72.7895250
  69.5954270  47.1745380  75.0850560  68.9530430  46.5201000  75.3594280
  69.2084930  47.5800470  74.3091230  65.1740750  44.5030810  78.9322250
  65.5264570  43.9058940  78.2723620  64.2903080  44.1775040  79.1030500
  61.2604030  45.2628500  76.3392660  61.9475160  45.8097710  76.7200250
  60.4736450  45.8069230  76.3742270  53.3996430  40.8801320  71.8309740
  54.2691280  41.1626120  72.1145660  52.9086750  41.6937190  71.7158550
  60.5631240  42.2674530  75.9518020  61.0194020  43.0779780  76.1778210
  60.2119450  41.9497670  76.7836510  56.4643020  32.6112180  76.4240540
  56.3357650  32.6030080  77.3725460  55.6405040  32.9495270  76.0731550
  64.1395930  45.7813220  81.8987770  64.7818160  45.0806380  82.0119940
  64.6645280  46.5611660  81.7184660  67.9851650  46.0661840  71.6226910
  67.7589230  45.3492280  72.2151550  67.5947850  45.8174280  70.7848660
  53.7667680  50.0928700  72.3971370  54.1265320  50.6918040  71.7428640
  53.6260020  50.6388590  73.1706400  67.5667900  43.9833780  73.2841070
  67.2789600  44.4446470  74.0718950  68.3620070  43.5231550  73.5525290
  59.7836300  47.4759900  73.2145040  59.7746400  48.2089590  72.5989550
  58.8634660  47.2291480  73.3072000  55.3842940  42.6974790  73.9591800
  54.7770890  43.4373690  73.9687100  55.8592290  42.7874150  73.1330000
  68.3237760  35.8182550  74.4436250  67.6950920  35.9228220  73.7294480
  67.8289680  36.0379330  75.2330130  62.7695900  47.5388140  71.8770230
  62.8707880  47.3352130  70.9472210  61.8697640  47.2846420  72.0818010
  60.2921790  38.0968500  75.8594130  59.5837940  38.5654840  76.3007740
  60.5766270  37.4390510  76.4939320  64.3237220  34.8219160  77.2989920
  64.2005000  34.8405290  76.3499430  65.2721780  34.8698100  77.4188320
  61.4114010  50.0574460  76.5717900  61.6655510  50.0195850  75.6497270
  60.4626490  49.9307790  76.5646150  58.4956810  36.4053580  73.2344840
  59.3447340  36.8423730  73.1685030  58.1288080  36.7173840  74.0616900
  67.4166590  40.9766340  78.1476410  66.4756730  40.9916570  78.3224100
  67.7310660  40.1902300  78.5936710  57.3948230  42.6585940  71.7080370
  58.1611500  42.5467300  72.2705800  57.4722920  41.9623910  71.0557140
  56.0894990  40.0911010  72.3913260  56.1698580  39.1438520  72.5030660
  56.9814740  40.4217890  72.4973920  69.4192170  48.1475190  79.8230670
  69.5439590  48.9706360  80.2954480  70.2857730  47.9365920  79.4754820
  56.8909700  50.2406400  79.4947800  57.6272180  49.6921860  79.7656370
  57.2750620  51.1062410  79.3553790  53.7755180  46.3079970  75.3689310
  52.8494960  46.5501110  75.3594720  54.2411610  47.1354230  75.2474060
  60.0012010  49.4136710  71.3173370  60.7940620  49.7025540  70.8655160
  59.4816360  48.9828880  70.6385850  69.0542180  48.6406840  72.7410110
  68.7683690  48.2271980  71.9264290  68.8561730  49.5694550  72.6210630
  60.5189410  44.6340120  71.1815720  60.4140050  44.0192470  71.9077100
  60.3513630  44.1106010  70.3978730  63.7592140  43.6960150  71.7857710
  63.2102240  44.1429450  72.4300450  64.3811400  43.1909400  72.3095380
  59.4267260  42.6551070  73.6823010  59.8483680  42.4890940  74.5254400
  59.5518100  41.8451300  73.1878150  61.9394900  41.6788680  70.9300110
  62.4600560  40.9637700  70.5641260  62.5863300  42.3174550  71.2300620
  58.3226160  38.7284300  70.6281170  58.1215220  37.8651660  70.9894510
  58.1518210  38.6417660  69.6902770  65.8014470  33.5392530  73.1568050
  66.0816760  32.6960430  73.5127470  65.0280200  33.7715640  73.6706800
  57.1208960  35.8284920  70.6159050  57.4234860  35.8352350  69.7078200
  57.8603550  35.4782780  71.1126710  60.3393890  34.7719540  71.6015250
  59.9915890  34.0943530  71.0217700  60.5406660  34.3109050  72.4158640
  62.5042930  49.7600290  73.2201850  63.3993720  50.0985260  73.2420610
  62.5360560  49.0379700  72.5926130  56.1439090  45.1327340  71.4488850
  56.5813960  45.6757010  72.1046430  56.6286820  44.3074290  71.4585190
  53.3584890  47.9216370  78.9009110  53.6887900  47.0537430  78.6687750
  53.7875890  48.1274890  79.7314070  57.9546810  46.2525380  76.5611080
  57.6542350  46.1290350  77.4614990  57.8484300  45.3933970  76.1526810
  53.8475100  48.7886960  81.6390740  53.4106090  48.9687760  82.4714890
  54.4152780  49.5461580  81.4972460  70.7238730  46.0321780  71.2637760
  69.8931690  46.0998430  71.7344990  70.9010560  46.9225900  70.9604620
  70.1795190  42.7769260  73.7671960  70.9414100  43.3465910  73.8731650
  70.1949560  42.2096460  74.5380270  53.6799530  41.3007190  77.9979620
  53.0248370  41.0318830  77.3539320  54.5177480  41.1911670  77.5481600
  71.1855160  43.6319360  78.6113890  71.5563990  42.8486680  78.2049860
  71.8257090  44.3208460  78.4331190  70.2314360  43.0703630  70.9244480
  70.5063200  43.9782510  70.7963700  70.0425100  43.0066160  71.8606470
  66.6289970  36.0948480  72.2198110  67.0474850  35.9079460  71.3794770
  66.3226030  35.2427530  72.5301040  70.1279700  41.0072620  75.9173910
  69.7523300  40.2400550  75.4855200  69.3982820  41.3895320  76.4048840
  52.8937610  38.5106120  73.9404950  51.9901690  38.7736320  73.7656610
  53.3778230  38.7817290  73.1604910  69.4030660  39.2330110  79.2181150
  69.9268140  38.7392760  78.5871320  69.9890080  39.3680470  79.9628720
  69.5820380  39.3169980  82.7400700  68.6323090  39.2833520  82.8545690
  69.7633390  40.2270090  82.5050470  55.4364820  37.5671660  71.8499330
  56.1456520  37.1454880  71.3646610  54.7204760  37.6346890  71.2182680
  55.0838980  33.6210990  70.8901980  55.8067110  34.1619930  71.2083200
  55.3563500  33.3474410  70.0143520  68.8930630  38.4903460  75.1573560
  69.3889750  38.2574330  75.9422440  68.6946700  37.6515300  74.7411200
  54.7731170  32.8717180  80.7924600  55.4207360  32.3214560  80.3519760
  55.1933010  33.1260330  81.6140410  70.3217790  37.1264410  77.6911240
  70.2117070  36.9720450  78.6293510  71.0825380  36.5985350  77.4486650
  71.2108060  34.9572330  70.9317380  72.1357370  34.8253510  70.7235670
  71.1883850  35.0365150  71.8853830  71.2846550  35.7282990  73.5574090
  70.4898050  35.6628110  74.0867000  71.4889830  36.6633630  73.5459440
  68.2264970  49.7674540  77.5512480  68.8224040  49.4459110  76.8746900
  68.4843120  49.2946360  78.3425750  68.7777180  50.4169840  81.3810210
  68.3180150  51.1685650  81.0068230  68.1489640  49.6976310  81.3225010
  59.2072900  48.7258080  80.5558340  59.7237920  48.1145440  80.0306600
  59.8570280  49.2286860  81.0469350  61.9468400  49.6166570  81.3827320
  62.2346210  49.3620870  80.5060330  62.4591620  49.0643930  81.9732890
  63.1645410  33.3556770  81.9623830  62.3817200  33.8302270  82.2420590
  62.8708340  32.4511600  81.8537010  67.7166480  34.0579870  80.0072920
  68.1574570  34.0024970  79.1594520  67.4474070  34.9737880  80.0783100
  69.5805050  33.6895110  78.0181740  69.5193450  32.7456330  77.8712760
  70.3597080  33.7975200  78.5635200  53.8857800  49.8287470  76.9805690
  53.7179840  49.1958150  77.6787580  53.0192310  50.0346870  76.6299880
  54.5085820  33.6604250  74.4837550  55.2665180  33.7733130  73.9101580
  54.0462990  34.4973450  74.4380980  61.0499630  35.7743520  77.4739860
  60.2374140  35.4000410  77.1335740  61.5541270  35.0188600  77.7761050
  65.5524610  32.4385970  78.7122930  66.1553980  33.0106180  79.1871450
  64.8117600  33.0025410  78.4896830  68.6959210  32.8407530  73.9863210
  68.8909840  33.7390980  74.2530640  67.9089080  32.6094610  74.4796160
  55.4920500  48.5220700  74.4255830  54.9668120  48.9028730  73.7217790
  55.4165080  49.1471470  75.1465540  56.8810970  34.1868300  73.0239520
  57.4103730  33.3998100  72.8947470  57.5139290  34.8659490  73.2575050
  59.0748810  33.9243440  76.0784910  58.4451550  33.2230750  76.2455040
  58.5353950  34.6847570  75.8618070  70.2485820  50.0808240  75.7469770
  70.4238010  49.3945980  75.1030690  69.5507390  50.6055290  75.3546440
  58.0913470  50.4703080  73.3005080  58.8232290  50.1862360  72.7528970
  58.3507140  50.2316360  74.1904460  57.2528260  46.5867810  73.3051410
  56.6237140  47.0552910  73.8537240  57.3676090  45.7417030  73.7397600
  66.8603450  46.8212680  60.1161010  66.3984980  46.0499920  60.4448180
  67.6729000  46.8478750  60.6213460  63.0866760  49.1070690  59.7365000
  62.4678200  49.5628190  59.1659440  63.9418540  49.2622150  59.3354700
  67.0934300  35.3930500  58.5029310  67.9143920  34.9027070  58.5454790
  67.1268380  35.9828160  59.2561150  71.3833850  37.4097250  65.0672940
  70.6786020  37.7978960  64.5488050  71.6491770  38.1047540  65.6693870
  57.5659020  33.8790620  65.6307010  57.5677460  34.3963010  64.8252910
  56.7363330  33.4020800  65.6076940  67.3295780  37.3330880  61.2756850
  66.6251350  37.6215770  61.8559960  67.6907940  38.1430990  60.9156410
  68.9458560  46.9506010  63.5384330  68.2622080  47.6205120  63.5301000
  69.4852850  47.1486660  62.7729190  70.3982700  36.7785670  61.6666060
  69.4507610  36.8124650  61.7981490  70.7232690  37.5924620  62.0515420
  60.9302240  33.0782850  59.9622050  61.2377220  32.5229740  59.2457550
  60.0002940  33.2127310  59.7795040  66.4817300  48.7950140  62.2529510
  66.4944460  48.3912430  61.3851770  65.9292520  49.5697430  62.1490940
  67.7762720  45.5166360  57.3419680  67.6659050  44.5740690  57.4669100
  67.7730970  45.8782000  58.2282440  65.8802740  43.6979980  63.5812120
  66.2971530  43.4840090  62.7465580  66.6042560  43.9552770  64.1520740
  69.8264840  42.0967200  63.6728360  68.9983470  42.1660290  63.1978490
  70.4215320  42.6821510  63.2044190  66.7906850  38.8836520  64.6183230
  66.3778030  39.7090230  64.8723220  66.0582800  38.2981560  64.4259590
  67.4806950  48.9295850  65.3064210  67.0037510  49.7368040  65.1136820
  66.7968740  48.2774180  65.4590420  58.4839770  45.0945670  68.2948910
  57.5868300  45.3185640  68.5422310  58.5092640  45.2180610  67.3460310
  57.3110990  41.9658990  66.8706280  57.1718760  42.8381790  67.2393680
  56.4292350  41.6231800  66.7254220  59.1091340  47.9080690  69.0791430
  59.0806770  48.3123640  68.2119860  58.9456310  46.9791050  68.9163030
  69.1062130  33.1981600  52.5231210  68.7934790  33.2908430  53.4230280
  69.8674600  33.7762630  52.4728640  71.0606160  48.6907790  70.3755600
  71.5365880  49.1690680  71.0544680  71.6813320  48.6225280  69.6501100
  70.4639410  45.8820640  67.5355610  70.5902470  45.6432520  66.6172790
  70.5060790  45.0505180  68.0077690  64.3256150  49.5848640  66.1050420
  64.8400820  49.4956650  66.9072850  63.4825230  49.9308340  66.3978330
  66.3010550  49.8703980  55.5334420  66.1411690  49.5806920  56.4316250
  66.1357260  49.0944110  54.9979650  65.5686610  49.0054250  58.1680910
  66.0243560  48.2243630  58.4819530  65.9079130  49.7161070  58.7122090
  70.3163420  37.9353100  68.5005350  69.7007690  38.4432770  67.9720810
  69.9959840  37.0351430  68.4431290  58.0907930  33.9076470  60.3632220
  57.6476080  34.6886010  60.0316740  58.6492920  34.2306360  61.0703160
  62.3777740  36.7744990  65.9667540  61.9157110  36.9828010  66.7787480
  61.9755850  35.9604340  65.6638210  67.3782250  37.9953940  67.0964200
  66.5275840  37.6959690  67.4173270  67.2184040  38.2395950  66.1848020
  64.4731960  39.4955690  69.1962990  64.7985370  38.6619440  68.8565220
  65.2612290  40.0184210  69.3441320  61.2066750  33.5287170  55.2438050
  60.5820930  33.5247040  55.9691360  61.1196870  32.6618130  54.8474020
  60.1283830  34.4523800  62.2221820  60.4256160  35.3586630  62.1413840
  60.6769390  33.9642580  61.6081390  60.3221360  39.9295620  68.7573740
  60.2264960  38.9890350  68.6074140  61.1653340  40.1510690  68.3621810
  55.4531900  36.3409290  66.9107520  55.0595290  37.1884500  67.1180300
  54.7650300  35.7035660  67.1016160  62.0276950  36.4244260  69.9804260
  61.3375270  36.2316460  70.6150350  62.7709250  36.7078900  70.5128560
  64.3039920  40.2642700  62.8158180  63.5721040  40.7729510  63.1648280
  63.9064260  39.4472680  62.5146960  60.7417310  36.9396900  61.2210670
  60.7453370  36.4986850  60.3715210  61.6368430  37.2614230  61.3282490
  64.7665830  35.7176380  62.2281120  64.7838570  36.1685030  63.0722970
  64.5181410  34.8182020  62.4414560  68.1936580  33.1308560  68.0667500
  68.5182350  32.3998220  68.5925480  68.2293090  32.8122200  67.1648490
  58.8324650  40.0407320  65.2860290  58.5281720  40.9199300  65.5110650
  59.7871110  40.1007110  65.3217730  68.1194420  43.2433670  61.6753530
  68.8393540  43.7388960  61.2849640  67.9176240  42.5651560  61.0307400
  63.5804360  34.6371630  55.8182920  62.7668970  34.1384800  55.7428230
  63.3866310  35.4769880  55.4019270  63.5013220  43.3142730  67.5622530
  63.4350530  42.3938400  67.3080120  62.8718360  43.4118170  68.2767170
  58.0901500  41.3394300  69.3171200  57.7901640  41.4851480  68.4199020
  58.8612740  40.7799590  69.2244590  63.4329950  46.1363300  67.3126330
  63.4474490  45.2044260  67.0945240  62.7255050  46.2223060  67.9516100
  68.5667020  40.3203120  53.5824940  68.4830740  40.7517340  52.7321380
  69.2861210  40.7801470  54.0151760  69.6441160  42.7770640  66.6594910
  68.9189350  43.3699420  66.4624300  70.1716620  42.7694180  65.8608280
  69.5954270  47.1745380  56.3107070  68.9530430  46.5201000  56.5850790
  69.2084930  47.5800470  55.5347740  65.1740750  44.5030810  60.1578760
  65.5264570  43.9058940  59.4980130  64.2903080  44.1775040  60.3287010
  62.8663850  47.7780870  64.4066830  63.5106070  47.9840250  65.0840250
  63.2293290  47.0169270  63.9537680  64.1395930  45.7813220  63.1244280
  64.7818160  45.0806380  63.2376450  64.6645280  46.5611660  62.9441170
  65.9133550  46.5808120  66.3280340  66.2489790  47.1674810  67.0058260
  64.9933890  46.4500830  66.5578130  53.4636950  34.3703300  67.1103750
  52.7495470  34.5700220  67.7156360  53.8831990  33.5942870  67.4818550
  61.7422130  46.6299450  69.4968400  61.4219000  45.9108690  70.0414090
  61.0680490  47.3054520  69.5704460  64.9575730  36.8625610  64.8605200
  65.3256550  36.0420820  65.1884770  64.0973930  36.9227500  65.2760850
  68.3237760  35.8182550  55.6692760  67.6950920  35.9228220  54.9550990
  67.8289680  36.0379330  56.4586640  61.9177720  39.5165200  65.0843170
  62.4162970  39.9911020  65.7495020  62.0600670  38.5928720  65.2913200
  64.3237220  34.8219160  58.5246430  64.2005000  34.8405290  57.5755940
  65.2721780  34.8698100  58.6444830  69.1244580  35.7333160  65.9271560
  68.6218180  36.4738560  66.2665370  69.9401240  36.1217160  65.6108350
  67.4166590  40.9766340  59.3732920  66.4756730  40.9916570  59.5480610
  67.7310660  40.1902300  59.8193220  69.4192170  48.1475190  61.0487180
  69.5439590  48.9706360  61.5210990  70.2857730  47.9365920  60.7011330
  55.8967980  49.4252470  69.9089890  56.6980710  49.7464520  70.3225290
  55.3819800  49.0648050  70.6309800  64.7332610  45.5332340  69.8565300
  64.1270770  45.5563940  69.1161050  64.4286720  44.8015380  70.3932550
  66.1632980  49.2612630  68.4674710  67.1154730  49.1770650  68.4174950
  66.0161200  49.9254340  69.1408500  69.0542180  48.6406840  53.9666620
  68.7683690  48.2271980  53.1520800  68.8561730  49.5694550  53.8467140
  53.6165790  41.9125930  68.8525940  54.1204810  41.3333210  69.4242170
  52.8773210  42.1966160  69.3902310  60.6703730  43.3196920  68.3861460
  59.9049400  43.8881920  68.3016130  60.8519690  43.0273130  67.4929690
  67.8127080  45.0502250  68.9436480  68.5536550  45.3878010  68.4403940
  67.0499760  45.2194310  68.3906250  55.6488870  40.0555520  69.7476010
  55.6894210  39.7569390  70.6561240  56.5034370  40.4563130  69.5883530
  57.5894680  38.6347620  67.7150500  57.0591140  38.1438570  67.0873840
  58.2582750  39.0631820  67.1808430  66.4872740  43.1017080  67.4791690
  66.9013760  43.2562160  68.3282110  65.5523740  43.2272300  67.6417470
  66.9594910  40.4413240  69.4830840  67.5415680  39.6865560  69.3951320
  67.1356680  40.9720680  68.7062320  58.0766980  35.6009990  67.7947790
  57.9823850  34.9830740  67.0698660  57.4964370  36.3276280  67.5677700
  60.8428420  34.1583230  64.8275180  60.3945720  34.1807490  63.9820730
  60.2093620  33.7602250  65.4245480  61.2487970  43.0537560  65.4487620
  61.6676080  43.8970290  65.2763860  60.3296600  43.1909600  65.2194400
  63.5851870  40.7853740  66.8325460  63.7048080  40.1894880  67.5720300
  64.4445870  40.8223430  66.4126760  65.9239770  41.3390930  65.4087970
  65.3974990  41.8633550  64.8053110  66.2671110  41.9718320  66.0397700
  59.0995390  49.3590570  66.5645350  58.5616480  50.0836630  66.2454050
  59.3529350  48.8820910  65.7742690  60.3520640  37.3275090  68.0901280
  60.9420330  37.0190940  68.7779100  59.5340880  36.8554840  68.2461180
  65.1714070  36.9440900  68.3234300  64.4829590  36.2822440  68.2584290
  65.8920090  36.4979170  68.7682760  65.8014470  33.5392530  54.3824560
  66.0816760  32.6960430  54.7383980  65.0280200  33.7715640  54.8963310
  61.9557600  50.5941780  66.8232000  61.8816300  51.4976920  67.1304370
  61.0536440  50.2753680  66.7954070  60.3393890  34.7719540  52.8271760
  59.9915890  34.0943530  52.2474210  60.5406660  34.3109050  53.6415150
  62.5042930  49.7600290  54.4458360  63.3993720  50.0985260  54.4677120
  62.5360560  49.0379700  53.8182640  69.4837280  48.2903960  67.1524560
  68.8839270  48.3496520  66.4088480  69.6131180  47.3508940  67.2821410
  70.1795190  42.7769260  54.9928470  70.9414100  43.3465910  55.0988160
  70.1949560  42.2096460  55.7636780  71.1855160  43.6319360  59.8370400
  71.5563990  42.8486680  59.4306370  71.8257090  44.3208460  59.6587700
  68.1688920  45.0155940  65.2500720  67.3548760  45.4453100  65.5126510
  68.5763120  45.6274350  64.6369770  66.6289970  36.0948480  53.4454620
  67.0474850  35.9079460  52.6051280  66.3226030  35.2427530  53.7557550
  70.1279700  41.0072620  57.1430420  69.7523300  40.2400550  56.7111710
  69.3982820  41.3895320  57.6305350  69.5179320  40.1544140  66.7769940
  69.2865410  39.9256890  65.8767890  69.7783870  41.0743690  66.7314830
  67.9567390  35.3800570  69.5549640  68.8337570  35.3883970  69.9383640
  67.9688230  34.6431410  68.9441990  69.4030660  39.2330110  60.4437660
  69.9268140  38.7392760  59.8127830  69.9890080  39.3680470  61.1885230
  69.5820380  39.3169980  63.9657210  68.6323090  39.2833520  64.0802200
  69.7633390  40.2270090  63.7306980  68.8930630  38.4903460  56.3830070
  69.3889750  38.2574330  57.1678950  68.6946700  37.6515300  55.9667710
  70.3217790  37.1264410  58.9167750  70.2117070  36.9720450  59.8550020
  71.0825380  36.5985350  58.6743160  68.6683510  33.0658540  65.3750750
  69.3055730  33.6792680  65.7409940  68.8158400  33.1019200  64.4299980
  71.2108060  34.9572330  52.1573890  72.1357370  34.8253510  51.9492180
  71.1883850  35.0365150  53.1110340  71.2846550  35.7282990  54.7830600
  70.4898050  35.6628110  55.3123510  71.4889830  36.6633630  54.7715950
  68.2264970  49.7674540  58.7768990  68.8224040  49.4459110  58.1003410
  68.4843120  49.2946360  59.5682260  54.5263170  33.0272850  64.7606430
  54.1777990  33.4836670  65.5264610  54.1950870  32.1329980  64.8428860
  56.1327540  46.1992450  68.9259620  56.0897170  45.8285360  69.8074080
  56.2638550  47.1370020  69.0661440  59.8333570  47.7552040  64.5269340
  59.5924930  48.0226600  63.6399860  60.7736210  47.9257770  64.5820200
  62.0387990  34.2184730  68.2825850  61.9776880  34.8106560  69.0321260
  62.9788370  34.1110690  68.1376110  64.6762550  33.8754790  67.9218140
  65.2902960  34.1934080  67.2599220  65.2212110  33.3903380  68.5414000
  71.0937730  49.7746420  65.3279980  70.5996010  50.1715290  64.6107110
  70.4851020  49.1495630  65.7217260  55.1983810  32.5549050  68.0357200
  55.7466800  32.3737100  67.2723310  55.2639120  31.7643160  68.5713510
  65.4170590  32.4386930  64.2487430  64.5430430  32.7722040  64.0460360
  65.3081340  31.9660110  65.0739300  66.3242570  34.6457800  65.6329150
  65.9955930  33.8309560  65.2530880  67.2724870  34.6027610  65.5094840
  68.7777180  50.4169840  62.6066720  68.3180150  51.1685650  62.2324740
  68.1489640  49.6976310  62.5481520  61.9468400  49.6166570  62.6083830
  62.2346210  49.3620870  61.7316840  62.4591620  49.0643930  63.1989400
  63.1645410  33.3556770  63.1880340  62.3817200  33.8302270  63.4677100
  62.8708340  32.4511600  63.0793520  67.7166480  34.0579870  61.2329430
  68.1574570  34.0024970  60.3851030  67.4474070  34.9737880  61.3039610
  69.5805050  33.6895110  59.2438250  69.5193450  32.7456330  59.0969270
  70.3597080  33.7975200  59.7891710  61.0499630  35.7743520  58.6996370
  60.2374140  35.4000410  58.3592250  61.5541270  35.0188600  59.0017560
  65.5524610  32.4385970  59.9379440  66.1553980  33.0106180  60.4127960
  64.8117600  33.0025410  59.7153340  68.6959210  32.8407530  55.2119720
  68.8909840  33.7390980  55.4787150  67.9089080  32.6094610  55.7052670
  59.0748810  33.9243440  57.3041420  58.4451550  33.2230750  57.4711550
  58.5353950  34.6847570  57.0874580  62.0140760  50.5382670  69.9752030
  62.9408070  50.3026940  70.0187990  61.9991190  51.3654670  69.4938060
  70.2485820  50.0808240  56.9726280  70.4238010  49.3945980  56.3287200
  69.5507390  50.6055290  56.5802950  59.2004370  33.2027420  69.7393910
  58.9188640  33.7061020  68.9754730  59.5824070  32.4049170  69.3736040
  65.8019830  32.6181000  70.3174380  65.6885280  32.9375610  71.2125900
  66.6189570  33.0193510  70.0211660  68.5818320  49.7652530  69.7993070
  69.3743640  49.2701760  69.5919030  68.8751470  50.4442670  70.4068680
  71.3833850  37.4097250  46.2929450  70.6786020  37.7978960  45.7744560
  71.6491770  38.1047540  46.8950380  69.8264840  42.0967200  44.8984870
  68.9983470  42.1660290  44.4235000  70.4215320  42.6821510  44.4300700
  70.3163420  37.9353100  49.7261860  69.7007690  38.4432770  49.1977320
  69.9959840  37.0351430  49.6687800  67.3782250  37.9953940  48.3220710
  66.5275840  37.6959690  48.6429780  67.2184040  38.2395950  47.4104530
  62.0276950  36.4244260  51.2060770  61.3375270  36.2316460  51.8406860
  62.7709250  36.7078900  51.7385070  68.1936580  33.1308560  49.2924010
  68.5182350  32.3998220  49.8181990  68.2293090  32.8122200  48.3905000
  69.6441160  42.7770640  47.8851420  68.9189350  43.3699420  47.6880810
  70.1716620  42.7694180  47.0864790  69.1244580  35.7333160  47.1528070
  68.6218180  36.4738560  47.4921880  69.9401240  36.1217160  46.8364860
  66.9594910  40.4413240  50.7087350  67.5415680  39.6865560  50.6207830
  67.1356680  40.9720680  49.9318830  70.7238730  46.0321780  33.7150780
  69.8931690  46.0998430  34.1858010  70.9010560  46.9225900  33.4117640
  71.1855160  43.6319360  41.0626910  71.5563990  42.8486680  40.6562880
  71.8257090  44.3208460  40.8844210  69.5179320  40.1544140  48.0026450
  69.2865410  39.9256890  47.1024400  69.7783870  41.0743690  47.9571340
  67.9567390  35.3800570  50.7806150  68.8337570  35.3883970  51.1640150
  67.9688230  34.6431410  50.1698500  68.6683510  33.0658540  46.6007260
  69.3055730  33.6792680  46.9666450  68.8158400  33.1019200  45.6556490
  71.2108060  34.9572330  33.3830400  72.1357370  34.8253510  33.1748690
  71.1883850  35.0365150  34.3366850  71.2846550  35.7282990  36.0087110
  70.4898050  35.6628110  36.5380020  71.4889830  36.6633630  35.9972460
  70.2485820  50.0808240  38.1982790  70.4238010  49.3945980  37.5543710
  69.5507390  50.6055290  37.8059460  68.5818320  49.7652530  51.0249580
  69.3743640  49.2701760  50.8175540  68.8751470  50.4442670  51.6325190
  66.8603450  46.8212680  22.5674030  66.3984980  46.0499920  22.8961200
  67.6729000  46.8478750  23.0726480  63.0866760  49.1070690  22.1878020
  62.4678200  49.5628190  21.6172460  63.9418540  49.2622150  21.7867720
  67.0934300  35.3930500  20.9542330  67.9143920  34.9027070  20.9967810
  67.1268380  35.9828160  21.7074170  71.3833850  37.4097250  27.5185960
  70.6786020  37.7978960  27.0001070  71.6491770  38.1047540  28.1206890
  68.9458560  46.9506010  25.9897350  68.2622080  47.6205120  25.9814020
  69.4852850  47.1486660  25.2242210  70.3982700  36.7785670  24.1179080
  69.4507610  36.8124650  24.2494510  70.7232690  37.5924620  24.5028440
  67.7762720  45.5166360  19.7932700  67.6659050  44.5740690  19.9182120
  67.7730970  45.8782000  20.6795460  65.8802740  43.6979980  26.0325140
  66.2971530  43.4840090  25.1978600  66.6042560  43.9552770  26.6033760
  63.3052080  37.4148680  16.1462350  62.3655750  37.5762640  16.2314810
  63.6235340  38.1334360  15.5998340  69.8264840  42.0967200  26.1241380
  68.9983470  42.1660290  25.6491510  70.4215320  42.6821510  25.6557210
  67.3480290  42.7051980  19.6530440  66.7292710  42.3671530  19.0056740
  67.3304740  42.0611740  20.3609630  66.7906850  38.8836520  27.0696250
  66.3778030  39.7090230  27.3236240  66.0582800  38.2981560  26.8772610
  65.5244990  41.9438790  16.6603190  65.9638270  41.1061220  16.5141010
  66.2373410  42.5768190  16.7467330  69.1062130  33.1981600  14.9744230
  68.7934790  33.2908430  15.8743300  69.8674600  33.7762630  14.9241660
  71.0606160  48.6907790  32.8268620  71.5365880  49.1690680  33.5057700
  71.6813320  48.6225280  32.1014120  70.4639410  45.8820640  29.9868630
  70.5902470  45.6432520  29.0685810  70.5060790  45.0505180  30.4590710
  66.3010550  49.8703980  17.9847440  66.1411690  49.5806920  18.8829270
  66.1357260  49.0944110  17.4492670  58.7798930  49.6502510  19.7619060
  58.6041410  48.7338050  19.5486860  57.9254670  50.0089800  20.0016860
  66.0036680  47.3791540  16.5445440  65.3101840  47.3768830  15.8847720
  66.7459540  46.9550860  16.1139610  65.5686610  49.0054250  20.6193930
  66.0243560  48.2243630  20.9332550  65.9079130  49.7161070  21.1635110
  61.2066750  33.5287170  17.6951070  60.5820930  33.5247040  18.4204380
  61.1196870  32.6618130  17.2987040  65.1119910  39.0373410  19.1417140
  64.5128800  39.7609210  18.9580760  65.6599520  38.9750190  18.3593590
  60.8037460  37.9408980  16.6630450  60.9250280  37.8995460  17.6116270
  60.4185970  38.8033130  16.5077180  59.8158960  40.2510120  16.0613750
  59.2475860  39.8028370  15.4349660  60.5247960  40.6102900  15.5278900
  68.1194420  43.2433670  24.1266550  68.8393540  43.7388960  23.7362660
  67.9176240  42.5651560  23.4820420  63.5804360  34.6371630  18.2695940
  62.7668970  34.1384800  18.1941250  63.3866310  35.4769880  17.8532290
  66.2952750  39.0091280  16.5658100  67.1832370  39.3208510  16.3909440
  66.2657840  38.1363530  16.1738680  62.2913340  45.1814970  17.2446270
  62.6329040  45.9257200  16.7489590  61.4626050  45.4946090  17.6071100
  68.5667020  40.3203120  16.0337960  68.4830740  40.7517340  15.1834400
  69.2861210  40.7801470  16.4664780  69.6441160  42.7770640  29.1107930
  68.9189350  43.3699420  28.9137320  70.1716620  42.7694180  28.3121300
  69.5954270  47.1745380  18.7620090  68.9530430  46.5201000  19.0363810
  69.2084930  47.5800470  17.9860760  56.4643020  32.6112180  20.1010070
  56.3357650  32.6030080  21.0494990  55.6405040  32.9495270  19.7501080
  67.9851650  46.0661840  15.2996440  67.7589230  45.3492280  15.8921080
  67.5947850  45.8174280  14.4618190  67.5667900  43.9833780  16.9610600
  67.2789600  44.4446470  17.7488480  68.3620070  43.5231550  17.2294820
  68.3237760  35.8182550  18.1205780  67.6950920  35.9228220  17.4064010
  67.8289680  36.0379330  18.9099660  62.7695900  47.5388140  15.5539760
  62.8707880  47.3352130  14.6241740  61.8697640  47.2846420  15.7587540
  61.4114010  50.0574460  20.2487430  61.6655510  50.0195850  19.3266800
  60.4626490  49.9307790  20.2415680  69.1244580  35.7333160  28.3784580
  68.6218180  36.4738560  28.7178390  69.9401240  36.1217160  28.0621370
  67.4166590  40.9766340  21.8245940  66.4756730  40.9916570  21.9993630
  67.7310660  40.1902300  22.2706240  57.3948230  42.6585940  15.3849900
  58.1611500  42.5467300  15.9475330  57.4722920  41.9623910  14.7326670
  69.4192170  48.1475190  23.5000200  69.5439590  48.9706360  23.9724010
  70.2857730  47.9365920  23.1524350  60.0012010  49.4136710  14.9942900
  60.7940620  49.7025540  14.5424690  59.4816360  48.9828880  14.3155380
  69.0542180  48.6406840  16.4179640  68.7683690  48.2271980  15.6033820
  68.8561730  49.5694550  16.2980160  60.5189410  44.6340120  14.8585250
  60.4140050  44.0192470  15.5846630  60.3513630  44.1106010  14.0748260
  63.7592140  43.6960150  15.4627240  63.2102240  44.1429450  16.1069980
  64.3811400  43.1909400  15.9864910  67.8127080  45.0502250  31.3949500
  68.5536550  45.3878010  30.8916960  67.0499760  45.2194310  30.8419270
  61.9394900  41.6788680  14.6069640  62.4600560  40.9637700  14.2410790
  62.5863300  42.3174550  14.9070150  58.3226160  38.7284300  14.3050700
  58.1215220  37.8651660  14.6664040  58.1518210  38.6417660  13.3672300
  65.8014470  33.5392530  16.8337580  66.0816760  32.6960430  17.1897000
  65.0280200  33.7715640  17.3476330  57.1208960  35.8284920  14.2928580
  57.4234860  35.8352350  13.3847730  57.8603550  35.4782780  14.7896240
  60.3393890  34.7719540  15.2784780  59.9915890  34.0943530  14.6987230
  60.5406660  34.3109050  16.0928170  62.5042930  49.7600290  16.8971380
  63.3993720  50.0985260  16.9190140  62.5360560  49.0379700  16.2695660
  69.4837280  48.2903960  29.6037580  68.8839270  48.3496520  28.8601500
  69.6131180  47.3508940  29.7334430  70.7238730  46.0321780  14.9407290
  69.8931690  46.0998430  15.4114520  70.9010560  46.9225900  14.6374150
  70.1795190  42.7769260  17.4441490  70.9414100  43.3465910  17.5501180
  70.1949560  42.2096460  18.2149800  71.1855160  43.6319360  22.2883420
  71.5563990  42.8486680  21.8819390  71.8257090  44.3208460  22.1100720
  68.1688920  45.0155940  27.7013740  67.3548760  45.4453100  27.9639530
  68.5763120  45.6274350  27.0882790  70.2314360  43.0703630  14.6014010
  70.5063200  43.9782510  14.4733230  70.0425100  43.0066160  15.5376000
  66.6289970  36.0948480  15.8967640  67.0474850  35.9079460  15.0564300
  66.3226030  35.2427530  16.2070570  70.1279700  41.0072620  19.5943440
  69.7523300  40.2400550  19.1624730  69.3982820  41.3895320  20.0818370
  69.5179320  40.1544140  29.2282960  69.2865410  39.9256890  28.3280910
  69.7783870  41.0743690  29.1827850  69.4030660  39.2330110  22.8950680
  69.9268140  38.7392760  22.2640850  69.9890080  39.3680470  23.6398250
  69.5820380  39.3169980  26.4170230  68.6323090  39.2833520  26.5315220
  69.7633390  40.2270090  26.1820000  55.0838980  33.6210990  14.5671510
  55.8067110  34.1619930  14.8852730  55.3563500  33.3474410  13.6913050
  68.8930630  38.4903460  18.8343090  69.3889750  38.2574330  19.6191970
  68.6946700  37.6515300  18.4180730  70.3217790  37.1264410  21.3680770
  70.2117070  36.9720450  22.3063040  71.0825380  36.5985350  21.1256180
  68.6683510  33.0658540  27.8263770  69.3055730  33.6792680  28.1922960
  68.8158400  33.1019200  26.8813000  71.2108060  34.9572330  14.6086910
  72.1357370  34.8253510  14.4005200  71.1883850  35.0365150  15.5623360
  71.2846550  35.7282990  17.2343620  70.4898050  35.6628110  17.7636530
  71.4889830  36.6633630  17.2228970  68.2264970  49.7674540  21.2282010
  68.8224040  49.4459110  20.5516430  68.4843120  49.2946360  22.0195280
  71.0937730  49.7746420  27.7793000  70.5996010  50.1715290  27.0620130
  70.4851020  49.1495630  28.1730280  65.4170590  32.4386930  26.7000450
  64.5430430  32.7722040  26.4973380  65.3081340  31.9660110  27.5252320
  68.7777180  50.4169840  25.0579740  68.3180150  51.1685650  24.6837760
  68.1489640  49.6976310  24.9994540  67.7166480  34.0579870  23.6842450
  68.1574570  34.0024970  22.8364050  67.4474070  34.9737880  23.7552630
  69.5805050  33.6895110  21.6951270  69.5193450  32.7456330  21.5482290
  70.3597080  33.7975200  22.2404730  65.5524610  32.4385970  22.3892460
  66.1553980  33.0106180  22.8640980  64.8117600  33.0025410  22.1666360
  68.6959210  32.8407530  17.6632740  68.8909840  33.7390980  17.9300170
  67.9089080  32.6094610  18.1565690  56.8810970  34.1868300  16.7009050
  57.4103730  33.3998100  16.5717000  57.5139290  34.8659490  16.9344580
  70.2485820  50.0808240  19.4239300  70.4238010  49.3945980  18.7800220
  69.5507390  50.6055290  19.0315970  58.0913470  50.4703080  16.9774610
  58.8232290  50.1862360  16.4298500  58.3507140  50.2316360  17.8673990
  68.5818320  49.7652530  32.2506090  69.3743640  49.2701760  32.0432050
  68.8751470  50.4442670  32.8581700  64.7077980  40.6373470   3.1322140
  64.6272030  39.7228080   2.8613850  64.2942400  41.1340540   2.4261850
  62.8396020  42.4152490   5.0131410  62.0638120  41.9352930   5.3029980
  63.4908950  41.7358140   4.8387570  56.8561850  42.7272300   5.8907170
  56.0246730  42.4721010   6.2903680  57.4642830  42.7983070   6.6265090
  66.8603450  46.8212680   3.7930540  66.3984980  46.0499920   4.1217710
  67.6729000  46.8478750   4.2982990  56.8363110  46.7612390   6.0865190
  57.1391150  45.8710130   5.9075410  57.5806700  47.3182610   5.8587440
  53.2286810  40.2879840   5.5589260  53.8002920  39.5202040   5.5592900
  53.2288350  40.5868600   4.6495870  63.0866760  49.1070690   3.4134530
  62.4678200  49.5628190   2.8428970  63.9418540  49.2622150   3.0124230
  62.2805010  45.0909680   5.0201570  62.2113290  44.1499620   4.8590700
  63.0424870  45.1811090   5.5924140  54.4711680  35.6964200   7.3458190
  54.2914520  34.7989950   7.6260950  54.0691760  36.2436070   8.0205140
  63.3110180  37.8980060   5.2470500  63.6875000  37.0251940   5.1344170
  63.2129690  38.2338760   4.3560940  67.0934300  35.3930500   2.1798840
  67.9143920  34.9027070   2.2224320  67.1268380  35.9828160   2.9330680
  55.0898350  38.1924700   5.9540530  55.7708460  38.4563070   6.5727930
  54.7746400  37.3525570   6.2878540  59.2822920  39.2392060   5.0413120
  59.7901140  39.7373030   5.6818140  59.8136160  38.4627260   4.8652480
  71.3833850  37.4097250   8.7442470  70.6786020  37.7978960   8.2257580
  71.6491770  38.1047540   9.3463400  57.5659020  33.8790620   9.3076540
  57.5677460  34.3963010   8.5022440  56.7363330  33.4020800   9.2846470
  58.8161870  43.5185800   7.4850040  58.4831250  44.1454720   8.1271110
  58.9928550  44.0447680   6.7051710  67.3295780  37.3330880   4.9526380
  66.6251350  37.6215770   5.5329490  67.6907940  38.1430990   4.5925940
  57.2474350  35.5900580   7.3146990  57.5891160  36.4342630   7.0200860
  56.3090160  35.7384320   7.4312330  58.0280970  45.4866600   9.2999220
  58.6454970  46.1617680   9.0183670  57.1674090  45.8954580   9.2086720
  68.9458560  46.9506010   7.2153860  68.2622080  47.6205120   7.2070530
  69.4852850  47.1486660   6.4498720  70.3982700  36.7785670   5.3435590
  69.4507610  36.8124650   5.4751020  70.7232690  37.5924620   5.7284950
  60.9302240  33.0782850   3.6391580  61.2377220  32.5229740   2.9227080
  60.0002940  33.2127310   3.4564570  66.4817300  48.7950140   5.9299040
  66.4944460  48.3912430   5.0621300  65.9292520  49.5697430   5.8260470
  65.8802740  43.6979980   7.2581650  66.2971530  43.4840090   6.4235110
  66.6042560  43.9552770   7.8290270  69.8264840  42.0967200   7.3497890
  68.9983470  42.1660290   6.8748020  70.4215320  42.6821510   6.8813720
  66.7906850  38.8836520   8.2952760  66.3778030  39.7090230   8.5492750
  66.0582800  38.2981560   8.1029120  58.9239640  41.6696420   3.1571430
  58.5196640  40.9573670   2.6617330  59.0102760  41.3249660   4.0459470
  59.3921340  45.3563980   5.3210640  59.0949630  44.7509450   4.6418420
  60.3421160  45.3941290   5.2100000  57.6368260  38.4439630   6.9370470
  58.1882850  38.5534970   6.1623720  58.1511770  38.8177230   7.6525700
  67.4806950  48.9295850   8.9833740  67.0037510  49.7368040   8.7906350
  66.7968740  48.2774180   9.1359950  58.4839770  45.0945670  11.9718440
  57.5868300  45.3185640  12.2191840  58.5092640  45.2180610  11.0229840
  57.3110990  41.9658990  10.5475810  57.1718760  42.8381790  10.9163210
  56.4292350  41.6231800  10.4023750  63.6340370  46.8834860   1.8540940
  64.0736280  47.6259190   1.4396330  63.5727260  47.1261430   2.7779900
  59.1091340  47.9080690  12.7560960  59.0806770  48.3123640  11.8889390
  58.9456310  46.9791050  12.5932560  71.0606160  48.6907790  14.0525130
  71.5365880  49.1690680  14.7314210  71.6813320  48.6225280  13.3270630
  53.2629640  43.7356540   6.4646720  53.3410060  43.8705310   5.5202440
  53.8771320  43.0272430   6.6574840  54.5077270  45.4356730   2.8752900
  54.1005350  45.5771320   2.0206500  55.3990280  45.1516890   2.6724110
  70.4639410  45.8820640  11.2125140  70.5902470  45.6432520  10.2942320
  70.5060790  45.0505180  11.6847220  64.3256150  49.5848640   9.7819950
  64.8400820  49.4956650  10.5842380  63.4825230  49.9308340  10.0747860
  65.5686610  49.0054250   1.8450440  66.0243560  48.2243630   2.1589060
  65.9079130  49.7161070   2.3891620  70.3163420  37.9353100  12.1774880
  69.7007690  38.4432770  11.6490340  69.9959840  37.0351430  12.1200820
  53.3189160  44.7770710   9.0041180  53.4820200  44.3076070   8.1860550
  53.7841610  44.2694270   9.6690020  58.0907930  33.9076470   4.0401750
  57.6476080  34.6886010   3.7086270  58.6492920  34.2306360   4.7472690
  62.3777740  36.7744990   9.6437070  61.9157110  36.9828010  10.4557010
  61.9755850  35.9604340   9.3407740  67.3782250  37.9953940  10.7733730
  66.5275840  37.6959690  11.0942800  67.2184040  38.2395950   9.8617550
  64.4731960  39.4955690  12.8732520  64.7985370  38.6619440  12.5334750
  65.2612290  40.0184210  13.0210850  60.1283830  34.4523800   5.8991350
  60.4256160  35.3586630   5.8183370  60.6769390  33.9642580   5.2850920
  57.8822150  39.0310040   1.7683000  57.6563070  38.8147210   2.6729620
  57.1014680  39.4638500   1.4228970  60.3221360  39.9295620  12.4343270
  60.2264960  38.9890350  12.2843670  61.1653340  40.1510690  12.0391340
  63.7184780  37.6736950   2.3976930  64.1114350  37.9909150   1.5845620
  64.0801630  36.7948830   2.5121450  55.4531900  36.3409290  10.5877050
  55.0595290  37.1884500  10.7949830  54.7650300  35.7035660  10.7785690
  62.0276950  36.4244260  13.6573790  61.3375270  36.2316460  14.2919880
  62.7709250  36.7078900  14.1898090  52.7548950  34.2637750   4.6207130
  52.4662000  34.8340610   5.3332110  53.4994710  33.7842200   4.9838360
  64.3039920  40.2642700   6.4927710  63.5721040  40.7729510   6.8417810
  63.9064260  39.4472680   6.1916490  60.7417310  36.9396900   4.8980200
  60.7453370  36.4986850   4.0484740  61.6368430  37.2614230   5.0052020
  56.5919690  36.8223390   3.8574410  56.2519740  37.2998620   4.6141460
  55.8297010  36.3688510   3.4975510  64.7665830  35.7176380   5.9050650
  64.7838570  36.1685030   6.7492500  64.5181410  34.8182020   6.1184090
  68.1936580  33.1308560  11.7437030  68.5182350  32.3998220  12.2695010
  68.2293090  32.8122200  10.8418020  54.8928140  44.1522140  11.1636990
  54.5082930  43.5115810  11.7619950  55.2040330  44.8558260  11.7331720
  61.0425280  40.9998680   6.6445610  61.4095410  40.5257250   7.3906950
  60.8530340  41.8740250   6.9853950  53.9065770  35.7442370   2.7739080
  53.6212690  35.3798040   3.6117700  53.8444630  35.0122830   2.1602220
  58.8324650  40.0407320   8.9629820  58.5281720  40.9199300   9.1880180
  59.7871110  40.1007110   8.9987260  68.1194420  43.2433670   5.3523060
  68.8393540  43.7388960   4.9619170  67.9176240  42.5651560   4.7076930
  63.5013220  43.3142730  11.2392060  63.4350530  42.3938400  10.9849650
  62.8718360  43.4118170  11.9536700  57.4043840  43.9148690   3.1975480
  57.9222510  43.1116950   3.1432370  56.9527860  43.8527830   4.0392310
  54.8888380  40.8810060  10.1101180  54.5303320  41.5463910  10.6974520
  54.5942940  40.0493610  10.4813800  58.0901500  41.3394300  12.9940730
  57.7901640  41.4851480  12.0968550  58.8612740  40.7799590  12.9014120
  63.4329950  46.1363300  10.9895860  63.4474490  45.2044260  10.7714770
  62.7255050  46.2223060  11.6285630  69.6441160  42.7770640  10.3364440
  68.9189350  43.3699420  10.1393830  70.1716620  42.7694180   9.5377810
  65.1740750  44.5030810   3.8348290  65.5264570  43.9058940   3.1749660
  64.2903080  44.1775040   4.0056540  62.8663850  47.7780870   8.0836360
  63.5106070  47.9840250   8.7609780  63.2293290  47.0169270   7.6307210
  64.1395930  45.7813220   6.8013810  64.7818160  45.0806380   6.9145980
  64.6645280  46.5611660   6.6210700  65.9133550  46.5808120  10.0049870
  66.2489790  47.1674810  10.6827790  64.9933890  46.4500830  10.2347660
  53.4636950  34.3703300  10.7873280  52.7495470  34.5700220  11.3925890
  53.8831990  33.5942870  11.1588080  53.7509540  48.3583560  11.7739810
  53.8600660  47.4178300  11.6335200  53.0990100  48.6238310  11.1253540
  61.7422130  46.6299450  13.1737930  61.4219000  45.9108690  13.7183620
  61.0680490  47.3054520  13.2473990  64.9575730  36.8625610   8.5374730
  65.3256550  36.0420820   8.8654300  64.0973930  36.9227500   8.9530380
  61.9177720  39.5165200   8.7612700  62.4162970  39.9911020   9.4264550
  62.0600670  38.5928720   8.9682730  69.1244580  35.7333160   9.6041090
  68.6218180  36.4738560   9.9434900  69.9401240  36.1217160   9.2877880
  67.4166590  40.9766340   3.0502450  66.4756730  40.9916570   3.2250140
  67.7310660  40.1902300   3.4962750  69.4192170  48.1475190   4.7256710
  69.5439590  48.9706360   5.1980520  70.2857730  47.9365920   4.3780860
  56.8909700  50.2406400   4.3973840  57.6272180  49.6921860   4.6682410
  57.2750620  51.1062410   4.2579830  55.8967980  49.4252470  13.5859420
  56.6980710  49.7464520  13.9994820  55.3819800  49.0648050  14.3079330
  64.7332610  45.5332340  13.5334830  64.1270770  45.5563940  12.7930580
  64.4286720  44.8015380  14.0702080  66.1632980  49.2612630  12.1444240
  67.1154730  49.1770650  12.0944480  66.0161200  49.9254340  12.8178030
  53.6165790  41.9125930  12.5295470  54.1204810  41.3333210  13.1011700
  52.8773210  42.1966160  13.0671840  60.6703730  43.3196920  12.0630990
  59.9049400  43.8881920  11.9785660  60.8519690  43.0273130  11.1699220
  67.8127080  45.0502250  12.6206010  68.5536550  45.3878010  12.1173470
  67.0499760  45.2194310  12.0675780  57.5894680  38.6347620  11.3920030
  57.0591140  38.1438570  10.7643370  58.2582750  39.0631820  10.8577960
  66.4872740  43.1017080  11.1561220  66.9013760  43.2562160  12.0051640
  65.5523740  43.2272300  11.3187000  66.9594910  40.4413240  13.1600370
  67.5415680  39.6865560  13.0720850  67.1356680  40.9720680  12.3831850
  58.0766980  35.6009990  11.4717320  57.9823850  34.9830740  10.7468190
  57.4964370  36.3276280  11.2447230  60.8428420  34.1583230   8.5044710
  60.3945720  34.1807490   7.6590260  60.2093620  33.7602250   9.1015010
  61.2487970  43.0537560   9.1257150  61.6676080  43.8970290   8.9533390
  60.3296600  43.1909600   8.8963930  63.5851870  40.7853740  10.5094990
  63.7048080  40.1894880  11.2489830  64.4445870  40.8223430  10.0896290
  65.9239770  41.3390930   9.0857500  65.3974990  41.8633550   8.4822640
  66.2671110  41.9718320   9.7167230  59.0995390  49.3590570  10.2414880
  58.5616480  50.0836630   9.9223580  59.3529350  48.8820910   9.4512220
  60.3520640  37.3275090  11.7670810  60.9420330  37.0190940  12.4548630
  59.5340880  36.8554840  11.9230710  65.1714070  36.9440900  12.0003830
  64.4829590  36.2822440  11.9353820  65.8920090  36.4979170  12.4452290
  61.9557600  50.5941780  10.5001530  61.8816300  51.4976920  10.8073900
  61.0536440  50.2753680  10.4723600  53.3584890  47.9216370   3.8035150
  53.6887900  47.0537430   3.5713790  53.7875890  48.1274890   4.6340110
  53.8475100  48.7886960   6.5416780  53.4106090  48.9687760   7.3740930
  54.4152780  49.5461580   6.3998500  69.4837280  48.2903960  10.8294090
  68.8839270  48.3496520  10.0858010  69.6131180  47.3508940  10.9590940
  53.6799530  41.3007190   2.9005660  53.0248370  41.0318830   2.2565360
  54.5177480  41.1911670   2.4507640  71.1855160  43.6319360   3.5139930
  71.5563990  42.8486680   3.1075900  71.8257090  44.3208460   3.3357230
  68.1688920  45.0155940   8.9270250  67.3548760  45.4453100   9.1896040
  68.5763120  45.6274350   8.3139300  54.7175460  41.6859760   7.4409000
  55.0848500  41.5987160   8.3205020  54.1486280  40.9226310   7.3415860
  69.5179320  40.1544140  10.4539470  69.2865410  39.9256890   9.5537420
  69.7783870  41.0743690  10.4084360  54.2691460  38.5968850  11.3467420
  53.3747510  38.5635610  11.6861130  54.8089010  38.7955640  12.1118670
  67.9567390  35.3800570  13.2319170  68.8337570  35.3883970  13.6153170
  67.9688230  34.6431410  12.6211520  69.4030660  39.2330110   4.1207190
  69.9268140  38.7392760   3.4897360  69.9890080  39.3680470   4.8654760
  69.5820380  39.3169980   7.6426740  68.6323090  39.2833520   7.7571730
  69.7633390  40.2270090   7.4076510  54.7731170  32.8717180   5.6950640
  55.4207360  32.3214560   5.2545800  55.1933010  33.1260330   6.5166450
  70.3217790  37.1264410   2.5937280  70.2117070  36.9720450   3.5319550
  71.0825380  36.5985350   2.3512690  68.6683510  33.0658540   9.0520280
  69.3055730  33.6792680   9.4179470  68.8158400  33.1019200   8.1069510
  68.2264970  49.7674540   2.4538520  68.8224040  49.4459110   1.7772940
  68.4843120  49.2946360   3.2451790  54.5263170  33.0272850   8.4375960
  54.1777990  33.4836670   9.2034140  54.1950870  32.1329980   8.5198390
  56.1327540  46.1992450  12.6029150  56.0897170  45.8285360  13.4843610
  56.2638550  47.1370020  12.7430970  59.8333570  47.7552040   8.2038870
  59.5924930  48.0226600   7.3169390  60.7736210  47.9257770   8.2589730
  62.0387990  34.2184730  11.9595380  61.9776880  34.8106560  12.7090790
  62.9788370  34.1110690  11.8145640  64.6762550  33.8754790  11.5987670
  65.2902960  34.1934080  10.9368750  65.2212110  33.3903380  12.2183530
  71.0937730  49.7746420   9.0049510  70.5996010  50.1715290   8.2876640
  70.4851020  49.1495630   9.3986790  55.1983810  32.5549050  11.7126730
  55.7466800  32.3737100  10.9492840  55.2639120  31.7643160  12.2483040
  55.9715570  49.1454700   9.7226930  55.3775890  49.0139400  10.4616970
  55.9639410  48.3092840   9.2569030  65.4170590  32.4386930   7.9256960
  64.5430430  32.7722040   7.7229890  65.3081340  31.9660110   8.7508830
  66.3242570  34.6457800   9.3098680  65.9955930  33.8309560   8.9300410
  67.2724870  34.6027610   9.1864370  68.7777180  50.4169840   6.2836250
  68.3180150  51.1685650   5.9094270  68.1489640  49.6976310   6.2251050
  55.6027800  46.5113080   8.6734970  54.8761860  45.8918370   8.6060920
  55.6636950  46.9053690   7.8033050  59.2072900  48.7258080   5.4584380
  59.7237920  48.1145440   4.9332640  59.8570280  49.2286860   5.9495390
  61.9468400  49.6166570   6.2853360  62.2346210  49.3620870   5.4086370
  62.4591620  49.0643930   6.8758930  63.1645410  33.3556770   6.8649870
  62.3817200  33.8302270   7.1446630  62.8708340  32.4511600   6.7563050
  67.7166480  34.0579870   4.9098960  68.1574570  34.0024970   4.0620560
  67.4474070  34.9737880   4.9809140  69.5805050  33.6895110   2.9207780
  69.5193450  32.7456330   2.7738800  70.3597080  33.7975200   3.4661240
  53.8857800  49.8287470   1.8831730  53.7179840  49.1958150   2.5813620
  53.0192310  50.0346870   1.5325920  61.0499630  35.7743520   2.3765900
  60.2374140  35.4000410   2.0361780  61.5541270  35.0188600   2.6787090
  65.5524610  32.4385970   3.6148970  66.1553980  33.0106180   4.0897490
  64.8117600  33.0025410   3.3922870  62.0140760  50.5382670  13.6521560
  62.9408070  50.3026940  13.6957520  61.9991190  51.3654670  13.1707590
  59.2004370  33.2027420  13.4163440  58.9188640  33.7061020  12.6524260
  59.5824070  32.4049170  13.0505570  65.8019830  32.6181000  13.9943910
  65.6885280  32.9375610  14.8895430  66.6189570  33.0193510  13.6981190
  68.5818320  49.7652530  13.4762600  69.3743640  49.2701760  13.2688560
  68.8751470  50.4442670  14.0838210  64.7077980  21.8629980  78.2296100
  64.6272030  20.9484590  77.9587810  64.2942400  22.3597050  77.5235810
  62.8396020  23.6409000  80.1105370  62.0638120  23.1609440  80.4003940
  63.4908950  22.9614650  79.9361530  56.8561850  23.9528810  80.9881130
  56.0246730  23.6977520  81.3877640  57.4642830  24.0239580  81.7239050
  66.8603450  28.0469190  78.8904500  66.3984980  27.2756430  79.2191670
  67.6729000  28.0735260  79.3956950  56.8363110  27.9868900  81.1839150
  57.1391150  27.0966640  81.0049370  57.5806700  28.5439120  80.9561400
  55.2653800  18.9130700  74.7723520  54.3770500  19.2546670  74.6703400
  55.5494990  18.7131020  73.8804350  53.2286810  21.5136350  80.6563220
  53.8002920  20.7458550  80.6566860  53.2288350  21.8125110  79.7469830
  63.0866760  30.3327200  78.5108490  62.4678200  30.7884700  77.9402930
  63.9418540  30.4878660  78.1098190  62.2805010  26.3166190  80.1175530
  62.2113290  25.3756130  79.9564660  63.0424870  26.4067600  80.6898100
  54.4711680  16.9220710  82.4432150  54.2914520  16.0246460  82.7234910
  54.0691760  17.4692580  83.1179100  63.3110180  19.1236570  80.3444460
  63.6875000  18.2508450  80.2318130  63.2129690  19.4595270  79.4534900
  57.4415190  17.4962200  75.8061900  57.5481940  18.3965930  76.1130660
  56.5307550  17.4480170  75.5156550  67.0934300  16.6187010  77.2772800
  67.9143920  16.1283580  77.3198280  67.1268380  17.2084670  78.0304640
  55.0898350  19.4181210  81.0514490  55.7708460  19.6819580  81.6701890
  54.7746400  18.5782080  81.3852500  59.2822920  20.4648570  80.1387080
  59.7901140  20.9629540  80.7792100  59.8136160  19.6883770  79.9626440
  63.9530110  25.2166440  75.9040400  63.3347380  25.6815890  75.3403120
  64.4653360  25.9093920  76.3209910  58.8161870  24.7442310  82.5824000
  58.4831250  25.3711230  83.2245070  58.9928550  25.2704190  81.8025670
  67.3295780  18.5587390  80.0500340  66.6251350  18.8472280  80.6303450
  67.6907940  19.3687500  79.6899900  57.2474350  16.8157090  82.4120950
  57.5891160  17.6599140  82.1174820  56.3090160  16.9640830  82.5286290
  53.3213310  25.9022970  73.2780030  52.9441290  26.3910070  72.5464930
  53.5786380  26.5748250  73.9086560  68.9458560  28.1762520  82.3127820
  68.2622080  28.8461630  82.3044490  69.4852850  28.3743170  81.5472680
  70.3982700  18.0042180  80.4409550  69.4507610  18.0381160  80.5724980
  70.7232690  18.8181130  80.8258910  60.9302240  14.3039360  78.7365540
  61.2377220  13.7486250  78.0201040  60.0002940  14.4383820  78.5538530
  66.4817300  30.0206650  81.0273000  66.4944460  29.6168940  80.1595260
  65.9292520  30.7953940  80.9234430  67.7762720  26.7422870  76.1163170
  67.6659050  25.7997200  76.2412590  67.7730970  27.1038510  77.0025930
  65.8802740  24.9236490  82.3555610  66.2971530  24.7096600  81.5209070
  66.6042560  25.1809280  82.9264230  63.3183000  22.3688190  75.4725660
  62.3912280  22.3025570  75.7014130  63.4707820  23.3068320  75.3580900
  63.3052080  18.6405190  72.4692820  62.3655750  18.8019150  72.5545280
  63.6235340  19.3590870  71.9228810  69.8264840  23.3223710  82.4471850
  68.9983470  23.3916800  81.9721980  70.4215320  23.9078020  81.9787680
  67.3480290  23.9308490  75.9760910  66.7292710  23.5928040  75.3287210
  67.3304740  23.2868250  76.6840100  58.9239640  22.8952930  78.2545390
  58.5196640  22.1830180  77.7591290  59.0102760  22.5506170  79.1433430
  59.3921340  26.5820490  80.4184600  59.0949630  25.9765960  79.7392380
  60.3421160  26.6197800  80.3073960  57.6368260  19.6696140  82.0344430
  58.1882850  19.7791480  81.2597680  58.1511770  20.0433740  82.7499660
  65.5244990  23.1695300  72.9833660  65.9638270  22.3317730  72.8371480
  66.2373410  23.8024700  73.0697800  63.6340370  28.1091370  76.9514900
  64.0736280  28.8515700  76.5370290  63.5727260  28.3517940  77.8753860
  69.1062130  14.4238110  71.2974700  68.7934790  14.5164940  72.1973770
  69.8674600  15.0019140  71.2472130  55.6244270  21.7897910  75.7552040
  55.5041870  22.5160000  75.1433310  55.3145160  21.0200820  75.2779950
  53.2629640  24.9613050  81.5620680  53.3410060  25.0961820  80.6176400
  53.8771320  24.2528940  81.7548800  54.5077270  26.6613240  77.9726860
  54.1005350  26.8027830  77.1180460  55.3990280  26.3773400  77.7698070
  66.3010550  31.0960490  74.3077910  66.1411690  30.8063430  75.2059740
  66.1357260  30.3200620  73.7723140  58.7798930  30.8759020  76.0849530
  58.6041410  29.9594560  75.8717330  57.9254670  31.2346310  76.3247330
  66.0036680  28.6048050  72.8675910  65.3101840  28.6025340  72.2078190
  66.7459540  28.1807370  72.4370080  65.5686610  30.2310760  76.9424400
  66.0243560  29.4500140  77.2563020  65.9079130  30.9417580  77.4865580
  58.0907930  15.1332980  79.1375710  57.6476080  15.9142520  78.8060230
  58.6492920  15.4562870  79.8446650  61.2066750  14.7543680  74.0181540
  60.5820930  14.7503550  74.7434850  61.1196870  13.8874640  73.6217510
  60.1283830  15.6780310  80.9965310  60.4256160  16.5843140  80.9157330
  60.6769390  15.1899090  80.3824880  57.8822150  20.2566550  76.8656960
  57.6563070  20.0403720  77.7703580  57.1014680  20.6895010  76.5202930
  65.1119910  20.2629920  75.4647610  64.5128800  20.9865720  75.2811230
  65.6599520  20.2006700  74.6824060  63.7184780  18.8993460  77.4950890
  64.1114350  19.2165660  76.6819580  64.0801630  18.0205340  77.6095410
  52.7548950  15.4894260  79.7181090  52.4662000  16.0597120  80.4306070
  53.4994710  15.0098710  80.0812320  52.9419180  19.4314380  70.9283810
  52.8593850  20.3745140  71.0698800  52.5902240  19.2889290  70.0496160
  64.3039920  21.4899210  81.5901670  63.5721040  21.9986020  81.9391770
  63.9064260  20.6729190  81.2890450  60.7417310  18.1653410  79.9954160
  60.7453370  17.7243360  79.1458700  61.6368430  18.4870740  80.1025980
  56.5919690  18.0479900  78.9548370  56.2519740  18.5255130  79.7115420
  55.8297010  17.5945020  78.5949470  60.8037460  19.1665490  72.9860920
  60.9250280  19.1251970  73.9346740  60.4185970  20.0289640  72.8307650
  64.7665830  16.9432890  81.0024610  64.7838570  17.3941540  81.8466460
  64.5181410  16.0438530  81.2158050  59.8158960  21.4766630  72.3844220
  59.2475860  21.0284880  71.7580130  60.5247960  21.8359410  71.8509370
  61.0425280  22.2255190  81.7419570  61.4095410  21.7513760  82.4880910
  60.8530340  23.0996760  82.0827910  53.9065770  16.9698880  77.8713040
  53.6212690  16.6054550  78.7091660  53.8444630  16.2379340  77.2576180
  57.3606440  25.4724820  74.6570630  56.5868700  24.9322440  74.4969350
  58.0901070  24.9531430  74.3188390  68.1194420  24.4690180  80.4497020
  68.8393540  24.9645470  80.0593130  67.9176240  23.7908070  79.8050890
  63.5804360  15.8628140  74.5926410  62.7668970  15.3641310  74.5171720
  63.3866310  16.7026390  74.1762760  66.2952750  20.2347790  72.8888570
  67.1832370  20.5465020  72.7139910  66.2657840  19.3620040  72.4969150
  57.4043840  25.1405200  78.2949440  57.9222510  24.3373460  78.2406330
  56.9527860  25.0784340  79.1366270  62.2913340  26.4071480  73.5676740
  62.6329040  27.1513710  73.0720060  61.4626050  26.7202600  73.9301570
  68.5667020  21.5459630  72.3568430  68.4830740  21.9773850  71.5064870
  69.2861210  22.0057980  72.7895250  69.5954270  28.4001890  75.0850560
  68.9530430  27.7457510  75.3594280  69.2084930  28.8056980  74.3091230
  65.1740750  25.7287320  78.9322250  65.5264570  25.1315450  78.2723620
  64.2903080  25.4031550  79.1030500  61.2604030  26.4885010  76.3392660
  61.9475160  27.0354220  76.7200250  60.4736450  27.0325740  76.3742270
  53.3996430  22.1057830  71.8309740  54.2691280  22.3882630  72.1145660
  52.9086750  22.9193700  71.7158550  60.5631240  23.4931040  75.9518020
  61.0194020  24.3036290  76.1778210  60.2119450  23.1754180  76.7836510
  56.4643020  13.8368690  76.4240540  56.3357650  13.8286590  77.3725460
  55.6405040  14.1751780  76.0731550  64.1395930  27.0069730  81.8987770
  64.7818160  26.3062890  82.0119940  64.6645280  27.7868170  81.7184660
  67.9851650  27.2918350  71.6226910  67.7589230  26.5748790  72.2151550
  67.5947850  27.0430790  70.7848660  53.7667680  31.3185210  72.3971370
  54.1265320  31.9174550  71.7428640  53.6260020  31.8645100  73.1706400
  67.5667900  25.2090290  73.2841070  67.2789600  25.6702980  74.0718950
  68.3620070  24.7488060  73.5525290  59.7836300  28.7016410  73.2145040
  59.7746400  29.4346100  72.5989550  58.8634660  28.4547990  73.3072000
  55.3842940  23.9231300  73.9591800  54.7770890  24.6630200  73.9687100
  55.8592290  24.0130660  73.1330000  68.3237760  17.0439060  74.4436250
  67.6950920  17.1484730  73.7294480  67.8289680  17.2635840  75.2330130
  62.7695900  28.7644650  71.8770230  62.8707880  28.5608640  70.9472210
  61.8697640  28.5102930  72.0818010  60.2921790  19.3225010  75.8594130
  59.5837940  19.7911350  76.3007740  60.5766270  18.6647020  76.4939320
  64.3237220  16.0475670  77.2989920  64.2005000  16.0661800  76.3499430
  65.2721780  16.0954610  77.4188320  61.4114010  31.2830970  76.5717900
  61.6655510  31.2452360  75.6497270  60.4626490  31.1564300  76.5646150
  58.4956810  17.6310090  73.2344840  59.3447340  18.0680240  73.1685030
  58.1288080  17.9430350  74.0616900  67.4166590  22.2022850  78.1476410
  66.4756730  22.2173080  78.3224100  67.7310660  21.4158810  78.5936710
  57.3948230  23.8842450  71.7080370  58.1611500  23.7723810  72.2705800
  57.4722920  23.1880420  71.0557140  56.0894990  21.3167520  72.3913260
  56.1698580  20.3695030  72.5030660  56.9814740  21.6474400  72.4973920
  69.4192170  29.3731700  79.8230670  69.5439590  30.1962870  80.2954480
  70.2857730  29.1622430  79.4754820  56.8909700  31.4662910  79.4947800
  57.6272180  30.9178370  79.7656370  57.2750620  32.3318920  79.3553790
  53.7755180  27.5336480  75.3689310  52.8494960  27.7757620  75.3594720
  54.2411610  28.3610740  75.2474060  60.0012010  30.6393220  71.3173370
  60.7940620  30.9282050  70.8655160  59.4816360  30.2085390  70.6385850
  69.0542180  29.8663350  72.7410110  68.7683690  29.4528490  71.9264290
  68.8561730  30.7951060  72.6210630  60.5189410  25.8596630  71.1815720
  60.4140050  25.2448980  71.9077100  60.3513630  25.3362520  70.3978730
  63.7592140  24.9216660  71.7857710  63.2102240  25.3685960  72.4300450
  64.3811400  24.4165910  72.3095380  59.4267260  23.8807580  73.6823010
  59.8483680  23.7147450  74.5254400  59.5518100  23.0707810  73.1878150
  61.9394900  22.9045190  70.9300110  62.4600560  22.1894210  70.5641260
  62.5863300  23.5431060  71.2300620  58.3226160  19.9540810  70.6281170
  58.1215220  19.0908170  70.9894510  58.1518210  19.8674170  69.6902770
  65.8014470  14.7649040  73.1568050  66.0816760  13.9216940  73.5127470
  65.0280200  14.9972150  73.6706800  57.1208960  17.0541430  70.6159050
  57.4234860  17.0608860  69.7078200  57.8603550  16.7039290  71.1126710
  60.3393890  15.9976050  71.6015250  59.9915890  15.3200040  71.0217700
  60.5406660  15.5365560  72.4158640  62.5042930  30.9856800  73.2201850
  63.3993720  31.3241770  73.2420610  62.5360560  30.2636210  72.5926130
  56.1439090  26.3583850  71.4488850  56.5813960  26.9013520  72.1046430
  56.6286820  25.5330800  71.4585190  53.3584890  29.1472880  78.9009110
  53.6887900  28.2793940  78.6687750  53.7875890  29.3531400  79.7314070
  57.9546810  27.4781890  76.5611080  57.6542350  27.3546860  77.4614990
  57.8484300  26.6190480  76.1526810  53.8475100  30.0143470  81.6390740
  53.4106090  30.1944270  82.4714890  54.4152780  30.7718090  81.4972460
  70.7238730  27.2578290  71.2637760  69.8931690  27.3254940  71.7344990
  70.9010560  28.1482410  70.9604620  70.1795190  24.0025770  73.7671960
  70.9414100  24.5722420  73.8731650  70.1949560  23.4352970  74.5380270
  53.6799530  22.5263700  77.9979620  53.0248370  22.2575340  77.3539320
  54.5177480  22.4168180  77.5481600  71.1855160  24.8575870  78.6113890
  71.5563990  24.0743190  78.2049860  71.8257090  25.5464970  78.4331190
  70.2314360  24.2960140  70.9244480  70.5063200  25.2039020  70.7963700
  70.0425100  24.2322670  71.8606470  66.6289970  17.3204990  72.2198110
  67.0474850  17.1335970  71.3794770  66.3226030  16.4684040  72.5301040
  70.1279700  22.2329130  75.9173910  69.7523300  21.4657060  75.4855200
  69.3982820  22.6151830  76.4048840  52.8937610  19.7362630  73.9404950
  51.9901690  19.9992830  73.7656610  53.3778230  20.0073800  73.1604910
  69.4030660  20.4586620  79.2181150  69.9268140  19.9649270  78.5871320
  69.9890080  20.5936980  79.9628720  69.5820380  20.5426490  82.7400700
  68.6323090  20.5090030  82.8545690  69.7633390  21.4526600  82.5050470
  55.4364820  18.7928170  71.8499330  56.1456520  18.3711390  71.3646610
  54.7204760  18.8603400  71.2182680  55.0838980  14.8467500  70.8901980
  55.8067110  15.3876440  71.2083200  55.3563500  14.5730920  70.0143520
  68.8930630  19.7159970  75.1573560  69.3889750  19.4830840  75.9422440
  68.6946700  18.8771810  74.7411200  54.7731170  14.0973690  80.7924600
  55.4207360  13.5471070  80.3519760  55.1933010  14.3516840  81.6140410
  70.3217790  18.3520920  77.6911240  70.2117070  18.1976960  78.6293510
  71.0825380  17.8241860  77.4486650  71.2108060  16.1828840  70.9317380
  72.1357370  16.0510020  70.7235670  71.1883850  16.2621660  71.8853830
  71.2846550  16.9539500  73.5574090  70.4898050  16.8884620  74.0867000
  71.4889830  17.8890140  73.5459440  68.2264970  30.9931050  77.5512480
  68.8224040  30.6715620  76.8746900  68.4843120  30.5202870  78.3425750
  68.7777180  31.6426350  81.3810210  68.3180150  32.3942160  81.0068230
  68.1489640  30.9232820  81.3225010  59.2072900  29.9514590  80.5558340
  59.7237920  29.3401950  80.0306600  59.8570280  30.4543370  81.0469350
  61.9468400  30.8423080  81.3827320  62.2346210  30.5877380  80.5060330
  62.4591620  30.2900440  81.9732890  63.1645410  14.5813280  81.9623830
  62.3817200  15.0558780  82.2420590  62.8708340  13.6768110  81.8537010
  67.7166480  15.2836380  80.0072920  68.1574570  15.2281480  79.1594520
  67.4474070  16.1994390  80.0783100  69.5805050  14.9151620  78.0181740
  69.5193450  13.9712840  77.8712760  70.3597080  15.0231710  78.5635200
  53.8857800  31.0543980  76.9805690  53.7179840  30.4214660  77.6787580
  53.0192310  31.2603380  76.6299880  54.5085820  14.8860760  74.4837550
  55.2665180  14.9989640  73.9101580  54.0462990  15.7229960  74.4380980
  61.0499630  17.0000030  77.4739860  60.2374140  16.6256920  77.1335740
  61.5541270  16.2445110  77.7761050  65.5524610  13.6642480  78.7122930
  66.1553980  14.2362690  79.1871450  64.8117600  14.2281920  78.4896830
  68.6959210  14.0664040  73.9863210  68.8909840  14.9647490  74.2530640
  67.9089080  13.8351120  74.4796160  55.4920500  29.7477210  74.4255830
  54.9668120  30.1285240  73.7217790  55.4165080  30.3727980  75.1465540
  56.8810970  15.4124810  73.0239520  57.4103730  14.6254610  72.8947470
  57.5139290  16.0916000  73.2575050  59.0748810  15.1499950  76.0784910
  58.4451550  14.4487260  76.2455040  58.5353950  15.9104080  75.8618070
  70.2485820  31.3064750  75.7469770  70.4238010  30.6202490  75.1030690
  69.5507390  31.8311800  75.3546440  58.0913470  31.6959590  73.3005080
  58.8232290  31.4118870  72.7528970  58.3507140  31.4572870  74.1904460
  57.2528260  27.8124320  73.3051410  56.6237140  28.2809420  73.8537240
  57.3676090  26.9673540  73.7397600  64.7077980  21.8629980  59.4552610
  64.6272030  20.9484590  59.1844320  64.2942400  22.3597050  58.7492320
  62.8396020  23.6409000  61.3361880  62.0638120  23.1609440  61.6260450
  63.4908950  22.9614650  61.1618040  56.8561850  23.9528810  62.2137640
  56.0246730  23.6977520  62.6134150  57.4642830  24.0239580  62.9495560
  66.8603450  28.0469190  60.1161010  66.3984980  27.2756430  60.4448180
  67.6729000  28.0735260  60.6213460  56.8363110  27.9868900  62.4095660
  57.1391150  27.0966640  62.2305880  57.5806700  28.5439120  62.1817910
  55.2653800  18.9130700  55.9980030  54.3770500  19.2546670  55.8959910
  55.5494990  18.7131020  55.1060860  53.2286810  21.5136350  61.8819730
  53.8002920  20.7458550  61.8823370  53.2288350  21.8125110  60.9726340
  63.0866760  30.3327200  59.7365000  62.4678200  30.7884700  59.1659440
  63.9418540  30.4878660  59.3354700  62.2805010  26.3166190  61.3432040
  62.2113290  25.3756130  61.1821170  63.0424870  26.4067600  61.9154610
  54.4711680  16.9220710  63.6688660  54.2914520  16.0246460  63.9491420
  54.0691760  17.4692580  64.3435610  63.3110180  19.1236570  61.5700970
  63.6875000  18.2508450  61.4574640  63.2129690  19.4595270  60.6791410
  57.4415190  17.4962200  57.0318410  57.5481940  18.3965930  57.3387170
  56.5307550  17.4480170  56.7413060  67.0934300  16.6187010  58.5029310
  67.9143920  16.1283580  58.5454790  67.1268380  17.2084670  59.2561150
  55.0898350  19.4181210  62.2771000  55.7708460  19.6819580  62.8958400
  54.7746400  18.5782080  62.6109010  59.2822920  20.4648570  61.3643590
  59.7901140  20.9629540  62.0048610  59.8136160  19.6883770  61.1882950
  71.3833850  18.6353760  65.0672940  70.6786020  19.0235470  64.5488050
  71.6491770  19.3304050  65.6693870  57.5659020  15.1047130  65.6307010
  57.5677460  15.6219520  64.8252910  56.7363330  14.6277310  65.6076940
  63.9530110  25.2166440  57.1296910  63.3347380  25.6815890  56.5659630
  64.4653360  25.9093920  57.5466420  58.8161870  24.7442310  63.8080510
  58.4831250  25.3711230  64.4501580  58.9928550  25.2704190  63.0282180
  67.3295780  18.5587390  61.2756850  66.6251350  18.8472280  61.8559960
  67.6907940  19.3687500  60.9156410  57.2474350  16.8157090  63.6377460
  57.5891160  17.6599140  63.3431330  56.3090160  16.9640830  63.7542800
  58.0280970  26.7123110  65.6229690  58.6454970  27.3874190  65.3414140
  57.1674090  27.1211090  65.5317190  68.9458560  28.1762520  63.5384330
  68.2622080  28.8461630  63.5301000  69.4852850  28.3743170  62.7729190
  70.3982700  18.0042180  61.6666060  69.4507610  18.0381160  61.7981490
  70.7232690  18.8181130  62.0515420  60.9302240  14.3039360  59.9622050
  61.2377220  13.7486250  59.2457550  60.0002940  14.4383820  59.7795040
  66.4817300  30.0206650  62.2529510  66.4944460  29.6168940  61.3851770
  65.9292520  30.7953940  62.1490940  67.7762720  26.7422870  57.3419680
  67.6659050  25.7997200  57.4669100  67.7730970  27.1038510  58.2282440
  65.8802740  24.9236490  63.5812120  66.2971530  24.7096600  62.7465580
  66.6042560  25.1809280  64.1520740  63.3183000  22.3688190  56.6982170
  62.3912280  22.3025570  56.9270640  63.4707820  23.3068320  56.5837410
  63.3052080  18.6405190  53.6949330  62.3655750  18.8019150  53.7801790
  63.6235340  19.3590870  53.1485320  69.8264840  23.3223710  63.6728360
  68.9983470  23.3916800  63.1978490  70.4215320  23.9078020  63.2044190
  67.3480290  23.9308490  57.2017420  66.7292710  23.5928040  56.5543720
  67.3304740  23.2868250  57.9096610  66.7906850  20.1093030  64.6183230
  66.3778030  20.9346740  64.8723220  66.0582800  19.5238070  64.4259590
  58.9239640  22.8952930  59.4801900  58.5196640  22.1830180  58.9847800
  59.0102760  22.5506170  60.3689940  59.3921340  26.5820490  61.6441110
  59.0949630  25.9765960  60.9648890  60.3421160  26.6197800  61.5330470
  57.6368260  19.6696140  63.2600940  58.1882850  19.7791480  62.4854190
  58.1511770  20.0433740  63.9756170  67.4806950  30.1552360  65.3064210
  67.0037510  30.9624550  65.1136820  66.7968740  29.5030690  65.4590420
  58.4839770  26.3202180  68.2948910  57.5868300  26.5442150  68.5422310
  58.5092640  26.4437120  67.3460310  65.5244990  23.1695300  54.2090170
  65.9638270  22.3317730  54.0627990  66.2373410  23.8024700  54.2954310
  57.3110990  23.1915500  66.8706280  57.1718760  24.0638300  67.2393680
  56.4292350  22.8488310  66.7254220  63.6340370  28.1091370  58.1771410
  64.0736280  28.8515700  57.7626800  63.5727260  28.3517940  59.1010370
  59.1091340  29.1337200  69.0791430  59.0806770  29.5380150  68.2119860
  58.9456310  28.2047560  68.9163030  69.1062130  14.4238110  52.5231210
  68.7934790  14.5164940  53.4230280  69.8674600  15.0019140  52.4728640
  55.6244270  21.7897910  56.9808550  55.5041870  22.5160000  56.3689820
  55.3145160  21.0200820  56.5036460  71.0606160  29.9164300  70.3755600
  71.5365880  30.3947190  71.0544680  71.6813320  29.8481790  69.6501100
  53.2629640  24.9613050  62.7877190  53.3410060  25.0961820  61.8432910
  53.8771320  24.2528940  62.9805310  54.5077270  26.6613240  59.1983370
  54.1005350  26.8027830  58.3436970  55.3990280  26.3773400  58.9954580
  70.4639410  27.1077150  67.5355610  70.5902470  26.8689030  66.6172790
  70.5060790  26.2761690  68.0077690  64.3256150  30.8105150  66.1050420
  64.8400820  30.7213160  66.9072850  63.4825230  31.1564850  66.3978330
  66.3010550  31.0960490  55.5334420  66.1411690  30.8063430  56.4316250
  66.1357260  30.3200620  54.9979650  66.0036680  28.6048050  54.0932420
  65.3101840  28.6025340  53.4334700  66.7459540  28.1807370  53.6626590
  65.5686610  30.2310760  58.1680910  66.0243560  29.4500140  58.4819530
  65.9079130  30.9417580  58.7122090  70.3163420  19.1609610  68.5005350
  69.7007690  19.6689280  67.9720810  69.9959840  18.2607940  68.4431290
  53.3189160  26.0027220  65.3271650  53.4820200  25.5332580  64.5091020
  53.7841610  25.4950780  65.9920490  58.0907930  15.1332980  60.3632220
  57.6476080  15.9142520  60.0316740  58.6492920  15.4562870  61.0703160
  62.3777740  18.0001500  65.9667540  61.9157110  18.2084520  66.7787480
  61.9755850  17.1860850  65.6638210  67.3782250  19.2210450  67.0964200
  66.5275840  18.9216200  67.4173270  67.2184040  19.4652460  66.1848020
  64.4731960  20.7212200  69.1962990  64.7985370  19.8875950  68.8565220
  65.2612290  21.2440720  69.3441320  61.2066750  14.7543680  55.2438050
  60.5820930  14.7503550  55.9691360  61.1196870  13.8874640  54.8474020
  60.1283830  15.6780310  62.2221820  60.4256160  16.5843140  62.1413840
  60.6769390  15.1899090  61.6081390  57.8822150  20.2566550  58.0913470
  57.6563070  20.0403720  58.9960090  57.1014680  20.6895010  57.7459440
  65.1119910  20.2629920  56.6904120  64.5128800  20.9865720  56.5067740
  65.6599520  20.2006700  55.9080570  60.3221360  21.1552130  68.7573740
  60.2264960  20.2146860  68.6074140  61.1653340  21.3767200  68.3621810
  63.7184780  18.8993460  58.7207400  64.1114350  19.2165660  57.9076090
  64.0801630  18.0205340  58.8351920  55.4531900  17.5665800  66.9107520
  55.0595290  18.4141010  67.1180300  54.7650300  16.9292170  67.1016160
  62.0276950  17.6500770  69.9804260  61.3375270  17.4572970  70.6150350
  62.7709250  17.9335410  70.5128560  52.7548950  15.4894260  60.9437600
  52.4662000  16.0597120  61.6562580  53.4994710  15.0098710  61.3068830
  52.9419180  19.4314380  52.1540320  52.8593850  20.3745140  52.2955310
  52.5902240  19.2889290  51.2752670  64.3039920  21.4899210  62.8158180
  63.5721040  21.9986020  63.1648280  63.9064260  20.6729190  62.5146960
  60.7417310  18.1653410  61.2210670  60.7453370  17.7243360  60.3715210
  61.6368430  18.4870740  61.3282490  56.5919690  18.0479900  60.1804880
  56.2519740  18.5255130  60.9371930  55.8297010  17.5945020  59.8205980
  60.8037460  19.1665490  54.2117430  60.9250280  19.1251970  55.1603250
  60.4185970  20.0289640  54.0564160  64.7665830  16.9432890  62.2281120
  64.7838570  17.3941540  63.0722970  64.5181410  16.0438530  62.4414560
  59.8158960  21.4766630  53.6100730  59.2475860  21.0284880  52.9836640
  60.5247960  21.8359410  53.0765880  68.1936580  14.3565070  68.0667500
  68.5182350  13.6254730  68.5925480  68.2293090  14.0378710  67.1648490
  54.8928140  25.3778650  67.4867460  54.5082930  24.7372320  68.0850420
  55.2040330  26.0814770  68.0562190  61.0425280  22.2255190  62.9676080
  61.4095410  21.7513760  63.7137420  60.8530340  23.0996760  63.3084420
  53.9065770  16.9698880  59.0969550  53.6212690  16.6054550  59.9348170
  53.8444630  16.2379340  58.4832690  58.8324650  21.2663830  65.2860290
  58.5281720  22.1455810  65.5110650  59.7871110  21.3263620  65.3217730
  68.1194420  24.4690180  61.6753530  68.8393540  24.9645470  61.2849640
  67.9176240  23.7908070  61.0307400  63.5804360  15.8628140  55.8182920
  62.7668970  15.3641310  55.7428230  63.3866310  16.7026390  55.4019270
  63.5013220  24.5399240  67.5622530  63.4350530  23.6194910  67.3080120
  62.8718360  24.6374680  68.2767170  66.2952750  20.2347790  54.1145080
  67.1832370  20.5465020  53.9396420  66.2657840  19.3620040  53.7225660
  57.4043840  25.1405200  59.5205950  57.9222510  24.3373460  59.4662840
  56.9527860  25.0784340  60.3622780  62.2913340  26.4071480  54.7933250
  62.6329040  27.1513710  54.2976570  61.4626050  26.7202600  55.1558080
  54.8888380  22.1066570  66.4331650  54.5303320  22.7720420  67.0204990
  54.5942940  21.2750120  66.8044270  58.0901500  22.5650810  69.3171200
  57.7901640  22.7107990  68.4199020  58.8612740  22.0056100  69.2244590
  63.4329950  27.3619810  67.3126330  63.4474490  26.4300770  67.0945240
  62.7255050  27.4479570  67.9516100  68.5667020  21.5459630  53.5824940
  68.4830740  21.9773850  52.7321380  69.2861210  22.0057980  54.0151760
  69.6441160  24.0027150  66.6594910  68.9189350  24.5955930  66.4624300
  70.1716620  23.9950690  65.8608280  69.5954270  28.4001890  56.3107070
  68.9530430  27.7457510  56.5850790  69.2084930  28.8056980  55.5347740
  65.1740750  25.7287320  60.1578760  65.5264570  25.1315450  59.4980130
  64.2903080  25.4031550  60.3287010  61.2604030  26.4885010  57.5649170
  61.9475160  27.0354220  57.9456760  60.4736450  27.0325740  57.5998780
  60.5631240  23.4931040  57.1774530  61.0194020  24.3036290  57.4034720
  60.2119450  23.1754180  58.0093020  62.8663850  29.0037380  64.4066830
  63.5106070  29.2096760  65.0840250  63.2293290  28.2425780  63.9537680
  56.4643020  13.8368690  57.6497050  56.3357650  13.8286590  58.5981970
  55.6405040  14.1751780  57.2988060  64.1395930  27.0069730  63.1244280
  64.7818160  26.3062890  63.2376450  64.6645280  27.7868170  62.9441170
  67.9851650  27.2918350  52.8483420  67.7589230  26.5748790  53.4408060
  67.5947850  27.0430790  52.0105170  65.9133550  27.8064630  66.3280340
  66.2489790  28.3931320  67.0058260  64.9933890  27.6757340  66.5578130
  53.4636950  15.5959810  67.1103750  52.7495470  15.7956730  67.7156360
  53.8831990  14.8199380  67.4818550  67.5667900  25.2090290  54.5097580
  67.2789600  25.6702980  55.2975460  68.3620070  24.7488060  54.7781800
  53.7509540  29.5840070  68.0970280  53.8600660  28.6434810  67.9565670
  53.0990100  29.8494820  67.4484010  61.7422130  27.8555960  69.4968400
  61.4219000  27.1365200  70.0414090  61.0680490  28.5311030  69.5704460
  59.7836300  28.7016410  54.4401550  59.7746400  29.4346100  53.8246060
  58.8634660  28.4547990  54.5328510  64.9575730  18.0882120  64.8605200
  65.3256550  17.2677330  65.1884770  64.0973930  18.1484010  65.2760850
  68.3237760  17.0439060  55.6692760  67.6950920  17.1484730  54.9550990
  67.8289680  17.2635840  56.4586640  62.7695900  28.7644650  53.1026740
  62.8707880  28.5608640  52.1728720  61.8697640  28.5102930  53.3074520
  60.2921790  19.3225010  57.0850640  59.5837940  19.7911350  57.5264250
  60.5766270  18.6647020  57.7195830  61.9177720  20.7421710  65.0843170
  62.4162970  21.2167530  65.7495020  62.0600670  19.8185230  65.2913200
  64.3237220  16.0475670  58.5246430  64.2005000  16.0661800  57.5755940
  65.2721780  16.0954610  58.6444830  61.4114010  31.2830970  57.7974410
  61.6655510  31.2452360  56.8753780  60.4626490  31.1564300  57.7902660
  58.4956810  17.6310090  54.4601350  59.3447340  18.0680240  54.3941540
  58.1288080  17.9430350  55.2873410  69.1244580  16.9589670  65.9271560
  68.6218180  17.6995070  66.2665370  69.9401240  17.3473670  65.6108350
  67.4166590  22.2022850  59.3732920  66.4756730  22.2173080  59.5480610
  67.7310660  21.4158810  59.8193220  56.0894990  21.3167520  53.6169770
  56.1698580  20.3695030  53.7287170  56.9814740  21.6474400  53.7230430
  69.4192170  29.3731700  61.0487180  69.5439590  30.1962870  61.5210990
  70.2857730  29.1622430  60.7011330  56.8909700  31.4662910  60.7204310
  57.6272180  30.9178370  60.9912880  57.2750620  32.3318920  60.5810300
  55.8967980  30.6508980  69.9089890  56.6980710  30.9721030  70.3225290
  55.3819800  30.2904560  70.6309800  60.0012010  30.6393220  52.5429880
  60.7940620  30.9282050  52.0911670  59.4816360  30.2085390  51.8642360
  64.7332610  26.7588850  69.8565300  64.1270770  26.7820450  69.1161050
  64.4286720  26.0271890  70.3932550  66.1632980  30.4869140  68.4674710
  67.1154730  30.4027160  68.4174950  66.0161200  31.1510850  69.1408500
  69.0542180  29.8663350  53.9666620  68.7683690  29.4528490  53.1520800
  68.8561730  30.7951060  53.8467140  53.6165790  23.1382440  68.8525940
  54.1204810  22.5589720  69.4242170  52.8773210  23.4222670  69.3902310
  60.6703730  24.5453430  68.3861460  59.9049400  25.1138430  68.3016130
  60.8519690  24.2529640  67.4929690  63.7592140  24.9216660  53.0114220
  63.2102240  25.3685960  53.6556960  64.3811400  24.4165910  53.5351890
  67.8127080  26.2758760  68.9436480  68.5536550  26.6134520  68.4403940
  67.0499760  26.4450820  68.3906250  55.6488870  21.2812030  69.7476010
  55.6894210  20.9825900  70.6561240  56.5034370  21.6819640  69.5883530
  59.4267260  23.8807580  54.9079520  59.8483680  23.7147450  55.7510910
  59.5518100  23.0707810  54.4134660  57.5894680  19.8604130  67.7150500
  57.0591140  19.3695080  67.0873840  58.2582750  20.2888330  67.1808430
  61.9394900  22.9045190  52.1556620  62.4600560  22.1894210  51.7897770
  62.5863300  23.5431060  52.4557130  66.4872740  24.3273590  67.4791690
  66.9013760  24.4818670  68.3282110  65.5523740  24.4528810  67.6417470
  66.9594910  21.6669750  69.4830840  67.5415680  20.9122070  69.3951320
  67.1356680  22.1977190  68.7062320  58.0766980  16.8266500  67.7947790
  57.9823850  16.2087250  67.0698660  57.4964370  17.5532790  67.5677700
  60.8428420  15.3839740  64.8275180  60.3945720  15.4064000  63.9820730
  60.2093620  14.9858760  65.4245480  61.2487970  24.2794070  65.4487620
  61.6676080  25.1226800  65.2763860  60.3296600  24.4166110  65.2194400
  63.5851870  22.0110250  66.8325460  63.7048080  21.4151390  67.5720300
  64.4445870  22.0479940  66.4126760  65.9239770  22.5647440  65.4087970
  65.3974990  23.0890060  64.8053110  66.2671110  23.1974830  66.0397700
  58.3226160  19.9540810  51.8537680  58.1215220  19.0908170  52.2151020
  58.1518210  19.8674170  50.9159280  59.0995390  30.5847080  66.5645350
  58.5616480  31.3093140  66.2454050  59.3529350  30.1077420  65.7742690
  60.3520640  18.5531600  68.0901280  60.9420330  18.2447450  68.7779100
  59.5340880  18.0811350  68.2461180  65.1714070  18.1697410  68.3234300
  64.4829590  17.5078950  68.2584290  65.8920090  17.7235680  68.7682760
  65.8014470  14.7649040  54.3824560  66.0816760  13.9216940  54.7383980
  65.0280200  14.9972150  54.8963310  57.1208960  17.0541430  51.8415560
  57.4234860  17.0608860  50.9334710  57.8603550  16.7039290  52.3383220
  61.9557600  31.8198290  66.8232000  61.8816300  32.7233430  67.1304370
  61.0536440  31.5010190  66.7954070  60.3393890  15.9976050  52.8271760
  59.9915890  15.3200040  52.2474210  60.5406660  15.5365560  53.6415150
  62.5042930  30.9856800  54.4458360  63.3993720  31.3241770  54.4677120
  62.5360560  30.2636210  53.8182640  57.9546810  27.4781890  57.7867590
  57.6542350  27.3546860  58.6871500  57.8484300  26.6190480  57.3783320
  53.8475100  30.0143470  62.8647250  53.4106090  30.1944270  63.6971400
  54.4152780  30.7718090  62.7228970  69.4837280  29.5160470  67.1524560
  68.8839270  29.5753030  66.4088480  69.6131180  28.5765450  67.2821410
  70.7238730  27.2578290  52.4894270  69.8931690  27.3254940  52.9601500
  70.9010560  28.1482410  52.1861130  70.1795190  24.0025770  54.9928470
  70.9414100  24.5722420  55.0988160  70.1949560  23.4352970  55.7636780
  53.6799530  22.5263700  59.2236130  53.0248370  22.2575340  58.5795830
  54.5177480  22.4168180  58.7738110  71.1855160  24.8575870  59.8370400
  71.5563990  24.0743190  59.4306370  71.8257090  25.5464970  59.6587700
  68.1688920  26.2412450  65.2500720  67.3548760  26.6709610  65.5126510
  68.5763120  26.8530860  64.6369770  70.2314360  24.2960140  52.1500990
  70.5063200  25.2039020  52.0220210  70.0425100  24.2322670  53.0862980
  66.6289970  17.3204990  53.4454620  67.0474850  17.1335970  52.6051280
  66.3226030  16.4684040  53.7557550  70.1279700  22.2329130  57.1430420
  69.7523300  21.4657060  56.7111710  69.3982820  22.6151830  57.6305350
  54.7175460  22.9116270  63.7639470  55.0848500  22.8243670  64.6435490
  54.1486280  22.1482820  63.6646330  69.5179320  21.3800650  66.7769940
  69.2865410  21.1513400  65.8767890  69.7783870  22.3000200  66.7314830
  54.2691460  19.8225360  67.6697890  53.3747510  19.7892120  68.0091600
  54.8089010  20.0212150  68.4349140  67.9567390  16.6057080  69.5549640
  68.8337570  16.6140480  69.9383640  67.9688230  15.8687920  68.9441990
  52.8937610  19.7362630  55.1661460  51.9901690  19.9992830  54.9913120
  53.3778230  20.0073800  54.3861420  69.4030660  20.4586620  60.4437660
  69.9268140  19.9649270  59.8127830  69.9890080  20.5936980  61.1885230
  69.5820380  20.5426490  63.9657210  68.6323090  20.5090030  64.0802200
  69.7633390  21.4526600  63.7306980  55.4364820  18.7928170  53.0755840
  56.1456520  18.3711390  52.5903120  54.7204760  18.8603400  52.4439190
  55.0838980  14.8467500  52.1158490  55.8067110  15.3876440  52.4339710
  55.3563500  14.5730920  51.2400030  68.8930630  19.7159970  56.3830070
  69.3889750  19.4830840  57.1678950  68.6946700  18.8771810  55.9667710
  54.7731170  14.0973690  62.0181110  55.4207360  13.5471070  61.5776270
  55.1933010  14.3516840  62.8396920  70.3217790  18.3520920  58.9167750
  70.2117070  18.1976960  59.8550020  71.0825380  17.8241860  58.6743160
  68.6683510  14.2915050  65.3750750  69.3055730  14.9049190  65.7409940
  68.8158400  14.3275710  64.4299980  71.2108060  16.1828840  52.1573890
  72.1357370  16.0510020  51.9492180  71.1883850  16.2621660  53.1110340
  71.2846550  16.9539500  54.7830600  70.4898050  16.8884620  55.3123510
  71.4889830  17.8890140  54.7715950  68.2264970  30.9931050  58.7768990
  68.8224040  30.6715620  58.1003410  68.4843120  30.5202870  59.5682260
  54.5263170  14.2529360  64.7606430  54.1777990  14.7093180  65.5264610
  54.1950870  13.3586490  64.8428860  56.1327540  27.4248960  68.9259620
  56.0897170  27.0541870  69.8074080  56.2638550  28.3626530  69.0661440
  59.8333570  28.9808550  64.5269340  59.5924930  29.2483110  63.6399860
  60.7736210  29.1514280  64.5820200  62.0387990  15.4441240  68.2825850
  61.9776880  16.0363070  69.0321260  62.9788370  15.3367200  68.1376110
  64.6762550  15.1011300  67.9218140  65.2902960  15.4190590  67.2599220
  65.2212110  14.6159890  68.5414000  71.0937730  31.0002930  65.3279980
  70.5996010  31.3971800  64.6107110  70.4851020  30.3752140  65.7217260
  55.1983810  13.7805560  68.0357200  55.7466800  13.5993610  67.2723310
  55.2639120  12.9899670  68.5713510  55.9715570  30.3711210  66.0457400
  55.3775890  30.2395910  66.7847440  55.9639410  29.5349350  65.5799500
  65.4170590  13.6643440  64.2487430  64.5430430  13.9978550  64.0460360
  65.3081340  13.1916620  65.0739300  66.3242570  15.8714310  65.6329150
  65.9955930  15.0566070  65.2530880  67.2724870  15.8284120  65.5094840
  68.7777180  31.6426350  62.6066720  68.3180150  32.3942160  62.2324740
  68.1489640  30.9232820  62.5481520  55.6027800  27.7369590  64.9965440
  54.8761860  27.1174880  64.9291390  55.6636950  28.1310200  64.1263520
  59.2072900  29.9514590  61.7814850  59.7237920  29.3401950  61.2563110
  59.8570280  30.4543370  62.2725860  61.9468400  30.8423080  62.6083830
  62.2346210  30.5877380  61.7316840  62.4591620  30.2900440  63.1989400
  63.1645410  14.5813280  63.1880340  62.3817200  15.0558780  63.4677100
  62.8708340  13.6768110  63.0793520  67.7166480  15.2836380  61.2329430
  68.1574570  15.2281480  60.3851030  67.4474070  16.1994390  61.3039610
  69.5805050  14.9151620  59.2438250  69.5193450  13.9712840  59.0969270
  70.3597080  15.0231710  59.7891710  54.5085820  14.8860760  55.7094060
  55.2665180  14.9989640  55.1358090  54.0462990  15.7229960  55.6637490
  61.0499630  17.0000030  58.6996370  60.2374140  16.6256920  58.3592250
  61.5541270  16.2445110  59.0017560  65.5524610  13.6642480  59.9379440
  66.1553980  14.2362690  60.4127960  64.8117600  14.2281920  59.7153340
  68.6959210  14.0664040  55.2119720  68.8909840  14.9647490  55.4787150
  67.9089080  13.8351120  55.7052670  56.8810970  15.4124810  54.2496030
  57.4103730  14.6254610  54.1203980  57.5139290  16.0916000  54.4831560
  59.0748810  15.1499950  57.3041420  58.4451550  14.4487260  57.4711550
  58.5353950  15.9104080  57.0874580  62.0140760  31.7639180  69.9752030
  62.9408070  31.5283450  70.0187990  61.9991190  32.5911180  69.4938060
  70.2485820  31.3064750  56.9726280  70.4238010  30.6202490  56.3287200
  69.5507390  31.8311800  56.5802950  59.2004370  14.4283930  69.7393910
  58.9188640  14.9317530  68.9754730  59.5824070  13.6305680  69.3736040
  65.8019830  13.8437510  70.3174380  65.6885280  14.1632120  71.2125900
  66.6189570  14.2450020  70.0211660  68.5818320  30.9909040  69.7993070
  69.3743640  30.4958270  69.5919030  68.8751470  31.6699180  70.4068680
  67.0934300  16.6187010  39.7285820  67.9143920  16.1283580  39.7711300
  67.1268380  17.2084670  40.4817660  71.3833850  18.6353760  46.2929450
  70.6786020  19.0235470  45.7744560  71.6491770  19.3304050  46.8950380
  57.5659020  15.1047130  46.8563520  57.5677460  15.6219520  46.0509420
  56.7363330  14.6277310  46.8333450  67.3295780  18.5587390  42.5013360
  66.6251350  18.8472280  43.0816470  67.6907940  19.3687500  42.1412920
  68.9458560  28.1762520  44.7640840  68.2622080  28.8461630  44.7557510
  69.4852850  28.3743170  43.9985700  70.3982700  18.0042180  42.8922570
  69.4507610  18.0381160  43.0238000  70.7232690  18.8181130  43.2771930
  60.9302240  14.3039360  41.1878560  61.2377220  13.7486250  40.4714060
  60.0002940  14.4383820  41.0051550  66.4817300  30.0206650  43.4786020
  66.4944460  29.6168940  42.6108280  65.9292520  30.7953940  43.3747450
  63.3052080  18.6405190  34.9205840  62.3655750  18.8019150  35.0058300
  63.6235340  19.3590870  34.3741830  66.7906850  20.1093030  45.8439740
  66.3778030  20.9346740  46.0979730  66.0582800  19.5238070  45.6516100
  67.4806950  30.1552360  46.5320720  67.0037510  30.9624550  46.3393330
  66.7968740  29.5030690  46.6846930  69.1062130  14.4238110  33.7487720
  68.7934790  14.5164940  34.6486790  69.8674600  15.0019140  33.6985150
  71.0606160  29.9164300  51.6012110  71.5365880  30.3947190  52.2801190
  71.6813320  29.8481790  50.8757610  70.4639410  27.1077150  48.7612120
  70.5902470  26.8689030  47.8429300  70.5060790  26.2761690  49.2334200
  70.3163420  19.1609610  49.7261860  69.7007690  19.6689280  49.1977320
  69.9959840  18.2607940  49.6687800  62.3777740  18.0001500  47.1924050
  61.9157110  18.2084520  48.0043990  61.9755850  17.1860850  46.8894720
  67.3782250  19.2210450  48.3220710  66.5275840  18.9216200  48.6429780
  67.2184040  19.4652460  47.4104530  64.4731960  20.7212200  50.4219500
  64.7985370  19.8875950  50.0821730  65.2612290  21.2440720  50.5697830
  61.2066750  14.7543680  36.4694560  60.5820930  14.7503550  37.1947870
  61.1196870  13.8874640  36.0730530  65.1119910  20.2629920  37.9160630
  64.5128800  20.9865720  37.7324250  65.6599520  20.2006700  37.1337080
  60.3221360  21.1552130  49.9830250  60.2264960  20.2146860  49.8330650
  61.1653340  21.3767200  49.5878320  55.4531900  17.5665800  48.1364030
  55.0595290  18.4141010  48.3436810  54.7650300  16.9292170  48.3272670
  62.0276950  17.6500770  51.2060770  61.3375270  17.4572970  51.8406860
  62.7709250  17.9335410  51.7385070  60.8037460  19.1665490  35.4373940
  60.9250280  19.1251970  36.3859760  60.4185970  20.0289640  35.2820670
  64.7665830  16.9432890  43.4537630  64.7838570  17.3941540  44.2979480
  64.5181410  16.0438530  43.6671070  68.1936580  14.3565070  49.2924010
  68.5182350  13.6254730  49.8181990  68.2293090  14.0378710  48.3905000
  63.5804360  15.8628140  37.0439430  62.7668970  15.3641310  36.9684740
  63.3866310  16.7026390  36.6275780  66.2952750  20.2347790  35.3401590
  67.1832370  20.5465020  35.1652930  66.2657840  19.3620040  34.9482170
  58.0901500  22.5650810  50.5427710  57.7901640  22.7107990  49.6455530
  58.8612740  22.0056100  50.4501100  68.5667020  21.5459630  34.8081450
  68.4830740  21.9773850  33.9577890  69.2861210  22.0057980  35.2408270
  69.6441160  24.0027150  47.8851420  68.9189350  24.5955930  47.6880810
  70.1716620  23.9950690  47.0864790  69.5954270  28.4001890  37.5363580
  68.9530430  27.7457510  37.8107300  69.2084930  28.8056980  36.7604250
  67.9851650  27.2918350  34.0739930  67.7589230  26.5748790  34.6664570
  67.5947850  27.0430790  33.2361680  53.4636950  15.5959810  48.3360260
  52.7495470  15.7956730  48.9412870  53.8831990  14.8199380  48.7075060
  64.9575730  18.0882120  46.0861710  65.3256550  17.2677330  46.4141280
  64.0973930  18.1484010  46.5017360  68.3237760  17.0439060  36.8949270
  67.6950920  17.1484730  36.1807500  67.8289680  17.2635840  37.6843150
  64.3237220  16.0475670  39.7502940  64.2005000  16.0661800  38.8012450
  65.2721780  16.0954610  39.8701340  69.1244580  16.9589670  47.1528070
  68.6218180  17.6995070  47.4921880  69.9401240  17.3473670  46.8364860
  69.4192170  29.3731700  42.2743690  69.5439590  30.1962870  42.7467500
  70.2857730  29.1622430  41.9267840  66.1632980  30.4869140  49.6931220
  67.1154730  30.4027160  49.6431460  66.0161200  31.1510850  50.3665010
  69.0542180  29.8663350  35.1923130  68.7683690  29.4528490  34.3777310
  68.8561730  30.7951060  35.0723650  55.6488870  21.2812030  50.9732520
  55.6894210  20.9825900  51.8817750  56.5034370  21.6819640  50.8140040
  57.5894680  19.8604130  48.9407010  57.0591140  19.3695080  48.3130350
  58.2582750  20.2888330  48.4064940  66.9594910  21.6669750  50.7087350
  67.5415680  20.9122070  50.6207830  67.1356680  22.1977190  49.9318830
  58.0766980  16.8266500  49.0204300  57.9823850  16.2087250  48.2955170
  57.4964370  17.5532790  48.7934210  60.8428420  15.3839740  46.0531690
  60.3945720  15.4064000  45.2077240  60.2093620  14.9858760  46.6501990
  63.5851870  22.0110250  48.0581970  63.7048080  21.4151390  48.7976810
  64.4445870  22.0479940  47.6383270  65.9239770  22.5647440  46.6344480
  65.3974990  23.0890060  46.0309620  66.2671110  23.1974830  47.2654210
  60.3520640  18.5531600  49.3157790  60.9420330  18.2447450  50.0035610
  59.5340880  18.0811350  49.4717690  65.1714070  18.1697410  49.5490810
  64.4829590  17.5078950  49.4840800  65.8920090  17.7235680  49.9939270
  65.8014470  14.7649040  35.6081070  66.0816760  13.9216940  35.9640490
  65.0280200  14.9972150  36.1219820  60.3393890  15.9976050  34.0528270
  59.9915890  15.3200040  33.4730720  60.5406660  15.5365560  34.8671660
  69.4837280  29.5160470  48.3781070  68.8839270  29.5753030  47.6344990
  69.6131180  28.5765450  48.5077920  70.7238730  27.2578290  33.7150780
  69.8931690  27.3254940  34.1858010  70.9010560  28.1482410  33.4117640
  70.1795190  24.0025770  36.2184980  70.9414100  24.5722420  36.3244670
  70.1949560  23.4352970  36.9893290  71.1855160  24.8575870  41.0626910
  71.5563990  24.0743190  40.6562880  71.8257090  25.5464970  40.8844210
  70.2314360  24.2960140  33.3757500  70.5063200  25.2039020  33.2476720
  70.0425100  24.2322670  34.3119490  66.6289970  17.3204990  34.6711130
  67.0474850  17.1335970  33.8307790  66.3226030  16.4684040  34.9814060
  70.1279700  22.2329130  38.3686930  69.7523300  21.4657060  37.9368220
  69.3982820  22.6151830  38.8561860  69.5179320  21.3800650  48.0026450
  69.2865410  21.1513400  47.1024400  69.7783870  22.3000200  47.9571340
  54.2691460  19.8225360  48.8954400  53.3747510  19.7892120  49.2348110
  54.8089010  20.0212150  49.6605650  67.9567390  16.6057080  50.7806150
  68.8337570  16.6140480  51.1640150  67.9688230  15.8687920  50.1698500
  69.4030660  20.4586620  41.6694170  69.9268140  19.9649270  41.0384340
  69.9890080  20.5936980  42.4141740  69.5820380  20.5426490  45.1913720
  68.6323090  20.5090030  45.3058710  69.7633390  21.4526600  44.9563490
  55.0838980  14.8467500  33.3415000  55.8067110  15.3876440  33.6596220
  55.3563500  14.5730920  32.4656540  68.8930630  19.7159970  37.6086580
  69.3889750  19.4830840  38.3935460  68.6946700  18.8771810  37.1924220
  70.3217790  18.3520920  40.1424260  70.2117070  18.1976960  41.0806530
  71.0825380  17.8241860  39.8999670  68.6683510  14.2915050  46.6007260
  69.3055730  14.9049190  46.9666450  68.8158400  14.3275710  45.6556490
  71.2108060  16.1828840  33.3830400  72.1357370  16.0510020  33.1748690
  71.1883850  16.2621660  34.3366850  71.2846550  16.9539500  36.0087110
  70.4898050  16.8884620  36.5380020  71.4889830  17.8890140  35.9972460
  54.5263170  14.2529360  45.9862940  54.1777990  14.7093180  46.7521120
  54.1950870  13.3586490  46.0685370  62.0387990  15.4441240  49.5082360
  61.9776880  16.0363070  50.2577770  62.9788370  15.3367200  49.3632620
  64.6762550  15.1011300  49.1474650  65.2902960  15.4190590  48.4855730
  65.2212110  14.6159890  49.7670510  71.0937730  31.0002930  46.5536490
  70.5996010  31.3971800  45.8363620  70.4851020  30.3752140  46.9473770
  55.1983810  13.7805560  49.2613710  55.7466800  13.5993610  48.4979820
  55.2639120  12.9899670  49.7970020  65.4170590  13.6643440  45.4743940
  64.5430430  13.9978550  45.2716870  65.3081340  13.1916620  46.2995810
  66.3242570  15.8714310  46.8585660  65.9955930  15.0566070  46.4787390
  67.2724870  15.8284120  46.7351350  68.7777180  31.6426350  43.8323230
  68.3180150  32.3942160  43.4581250  68.1489640  30.9232820  43.7738030
  63.1645410  14.5813280  44.4136850  62.3817200  15.0558780  44.6933610
  62.8708340  13.6768110  44.3050030  67.7166480  15.2836380  42.4585940
  68.1574570  15.2281480  41.6107540  67.4474070  16.1994390  42.5296120
  69.5805050  14.9151620  40.4694760  69.5193450  13.9712840  40.3225780
  70.3597080  15.0231710  41.0148220  54.5085820  14.8860760  36.9350570
  55.2665180  14.9989640  36.3614600  54.0462990  15.7229960  36.8894000
  65.5524610  13.6642480  41.1635950  66.1553980  14.2362690  41.6384470
  64.8117600  14.2281920  40.9409850  68.6959210  14.0664040  36.4376230
  68.8909840  14.9647490  36.7043660  67.9089080  13.8351120  36.9309180
  70.2485820  31.3064750  38.1982790  70.4238010  30.6202490  37.5543710
  69.5507390  31.8311800  37.8059460  59.2004370  14.4283930  50.9650420
  58.9188640  14.9317530  50.2011240  59.5824070  13.6305680  50.5992550
  65.8019830  13.8437510  51.5430890  65.6885280  14.1632120  52.4382410
  66.6189570  14.2450020  51.2468170  68.5818320  30.9909040  51.0249580
  69.3743640  30.4958270  50.8175540  68.8751470  31.6699180  51.6325190
  64.7077980  21.8629980  21.9065630  64.6272030  20.9484590  21.6357340
  64.2942400  22.3597050  21.2005340  66.8603450  28.0469190  22.5674030
  66.3984980  27.2756430  22.8961200  67.6729000  28.0735260  23.0726480
  55.2653800  18.9130700  18.4493050  54.3770500  19.2546670  18.3472930
  55.5494990  18.7131020  17.5573880  53.2286810  21.5136350  24.3332750
  53.8002920  20.7458550  24.3336390  53.2288350  21.8125110  23.4239360
  63.0866760  30.3327200  22.1878020  62.4678200  30.7884700  21.6172460
  63.9418540  30.4878660  21.7867720  54.4711680  16.9220710  26.1201680
  54.2914520  16.0246460  26.4004440  54.0691760  17.4692580  26.7948630
  63.3110180  19.1236570  24.0213990  63.6875000  18.2508450  23.9087660
  63.2129690  19.4595270  23.1304430  57.4415190  17.4962200  19.4831430
  57.5481940  18.3965930  19.7900190  56.5307550  17.4480170  19.1926080
  67.0934300  16.6187010  20.9542330  67.9143920  16.1283580  20.9967810
  67.1268380  17.2084670  21.7074170  55.0898350  19.4181210  24.7284020
  55.7708460  19.6819580  25.3471420  54.7746400  18.5782080  25.0622030
  59.2822920  20.4648570  23.8156610  59.7901140  20.9629540  24.4561630
  59.8136160  19.6883770  23.6395970  71.3833850  18.6353760  27.5185960
  70.6786020  19.0235470  27.0001070  71.6491770  19.3304050  28.1206890
  57.5659020  15.1047130  28.0820030  57.5677460  15.6219520  27.2765930
  56.7363330  14.6277310  28.0589960  63.9530110  25.2166440  19.5809930
  63.3347380  25.6815890  19.0172650  64.4653360  25.9093920  19.9979440
  67.3295780  18.5587390  23.7269870  66.6251350  18.8472280  24.3072980
  67.6907940  19.3687500  23.3669430  57.2474350  16.8157090  26.0890480
  57.5891160  17.6599140  25.7944350  56.3090160  16.9640830  26.2055820
  53.3213310  25.9022970  16.9549560  52.9441290  26.3910070  16.2234460
  53.5786380  26.5748250  17.5856090  68.9458560  28.1762520  25.9897350
  68.2622080  28.8461630  25.9814020  69.4852850  28.3743170  25.2242210
  70.3982700  18.0042180  24.1179080  69.4507610  18.0381160  24.2494510
  70.7232690  18.8181130  24.5028440  60.9302240  14.3039360  22.4135070
  61.2377220  13.7486250  21.6970570  60.0002940  14.4383820  22.2308060
  66.4817300  30.0206650  24.7042530  66.4944460  29.6168940  23.8364790
  65.9292520  30.7953940  24.6003960  67.7762720  26.7422870  19.7932700
  67.6659050  25.7997200  19.9182120  67.7730970  27.1038510  20.6795460
  65.8802740  24.9236490  26.0325140  66.2971530  24.7096600  25.1978600
  66.6042560  25.1809280  26.6033760  63.3183000  22.3688190  19.1495190
  62.3912280  22.3025570  19.3783660  63.4707820  23.3068320  19.0350430
  63.3052080  18.6405190  16.1462350  62.3655750  18.8019150  16.2314810
  63.6235340  19.3590870  15.5998340  69.8264840  23.3223710  26.1241380
  68.9983470  23.3916800  25.6491510  70.4215320  23.9078020  25.6557210
  67.3480290  23.9308490  19.6530440  66.7292710  23.5928040  19.0056740
  67.3304740  23.2868250  20.3609630  66.7906850  20.1093030  27.0696250
  66.3778030  20.9346740  27.3236240  66.0582800  19.5238070  26.8772610
  58.9239640  22.8952930  21.9314920  58.5196640  22.1830180  21.4360820
  59.0102760  22.5506170  22.8202960  57.6368260  19.6696140  25.7113960
  58.1882850  19.7791480  24.9367210  58.1511770  20.0433740  26.4269190
  67.4806950  30.1552360  27.7577230  67.0037510  30.9624550  27.5649840
  66.7968740  29.5030690  27.9103440  65.5244990  23.1695300  16.6603190
  65.9638270  22.3317730  16.5141010  66.2373410  23.8024700  16.7467330
  63.6340370  28.1091370  20.6284430  64.0736280  28.8515700  20.2139820
  63.5727260  28.3517940  21.5523390  69.1062130  14.4238110  14.9744230
  68.7934790  14.5164940  15.8743300  69.8674600  15.0019140  14.9241660
  55.6244270  21.7897910  19.4321570  55.5041870  22.5160000  18.8202840
  55.3145160  21.0200820  18.9549480  71.0606160  29.9164300  32.8268620
  71.5365880  30.3947190  33.5057700  71.6813320  29.8481790  32.1014120
  54.5077270  26.6613240  21.6496390  54.1005350  26.8027830  20.7949990
  55.3990280  26.3773400  21.4467600  70.4639410  27.1077150  29.9868630
  70.5902470  26.8689030  29.0685810  70.5060790  26.2761690  30.4590710
  66.3010550  31.0960490  17.9847440  66.1411690  30.8063430  18.8829270
  66.1357260  30.3200620  17.4492670  58.7798930  30.8759020  19.7619060
  58.6041410  29.9594560  19.5486860  57.9254670  31.2346310  20.0016860
  66.0036680  28.6048050  16.5445440  65.3101840  28.6025340  15.8847720
  66.7459540  28.1807370  16.1139610  65.5686610  30.2310760  20.6193930
  66.0243560  29.4500140  20.9332550  65.9079130  30.9417580  21.1635110
  70.3163420  19.1609610  30.9518370  69.7007690  19.6689280  30.4233830
  69.9959840  18.2607940  30.8944310  58.0907930  15.1332980  22.8145240
  57.6476080  15.9142520  22.4829760  58.6492920  15.4562870  23.5216180
  62.3777740  18.0001500  28.4180560  61.9157110  18.2084520  29.2300500
  61.9755850  17.1860850  28.1151230  67.3782250  19.2210450  29.5477220
  66.5275840  18.9216200  29.8686290  67.2184040  19.4652460  28.6361040
  64.4731960  20.7212200  31.6476010  64.7985370  19.8875950  31.3078240
  65.2612290  21.2440720  31.7954340  61.2066750  14.7543680  17.6951070
  60.5820930  14.7503550  18.4204380  61.1196870  13.8874640  17.2987040
  60.1283830  15.6780310  24.6734840  60.4256160  16.5843140  24.5926860
  60.6769390  15.1899090  24.0594410  57.8822150  20.2566550  20.5426490
  57.6563070  20.0403720  21.4473110  57.1014680  20.6895010  20.1972460
  65.1119910  20.2629920  19.1417140  64.5128800  20.9865720  18.9580760
  65.6599520  20.2006700  18.3593590  63.7184780  18.8993460  21.1720420
  64.1114350  19.2165660  20.3589110  64.0801630  18.0205340  21.2864940
  55.4531900  17.5665800  29.3620540  55.0595290  18.4141010  29.5693320
  54.7650300  16.9292170  29.5529180  62.0276950  17.6500770  32.4317280
  61.3375270  17.4572970  33.0663370  62.7709250  17.9335410  32.9641580
  52.7548950  15.4894260  23.3950620  52.4662000  16.0597120  24.1075600
  53.4994710  15.0098710  23.7581850  52.9419180  19.4314380  14.6053340
  52.8593850  20.3745140  14.7468330  52.5902240  19.2889290  13.7265690
  60.7417310  18.1653410  23.6723690  60.7453370  17.7243360  22.8228230
  61.6368430  18.4870740  23.7795510  56.5919690  18.0479900  22.6317900
  56.2519740  18.5255130  23.3884950  55.8297010  17.5945020  22.2719000
  60.8037460  19.1665490  16.6630450  60.9250280  19.1251970  17.6116270
  60.4185970  20.0289640  16.5077180  64.7665830  16.9432890  24.6794140
  64.7838570  17.3941540  25.5235990  64.5181410  16.0438530  24.8927580
  59.8158960  21.4766630  16.0613750  59.2475860  21.0284880  15.4349660
  60.5247960  21.8359410  15.5278900  68.1936580  14.3565070  30.5180520
  68.5182350  13.6254730  31.0438500  68.2293090  14.0378710  29.6161510
  53.9065770  16.9698880  21.5482570  53.6212690  16.6054550  22.3861190
  53.8444630  16.2379340  20.9345710  57.3606440  25.4724820  18.3340160
  56.5868700  24.9322440  18.1738880  58.0901070  24.9531430  17.9957920
  68.1194420  24.4690180  24.1266550  68.8393540  24.9645470  23.7362660
  67.9176240  23.7908070  23.4820420  63.5804360  15.8628140  18.2695940
  62.7668970  15.3641310  18.1941250  63.3866310  16.7026390  17.8532290
  63.5013220  24.5399240  30.0135550  63.4350530  23.6194910  29.7593140
  62.8718360  24.6374680  30.7280190  66.2952750  20.2347790  16.5658100
  67.1832370  20.5465020  16.3909440  66.2657840  19.3620040  16.1738680
  57.4043840  25.1405200  21.9718970  57.9222510  24.3373460  21.9175860
  56.9527860  25.0784340  22.8135800  62.2913340  26.4071480  17.2446270
  62.6329040  27.1513710  16.7489590  61.4626050  26.7202600  17.6071100
  68.5667020  21.5459630  16.0337960  68.4830740  21.9773850  15.1834400
  69.2861210  22.0057980  16.4664780  69.6441160  24.0027150  29.1107930
  68.9189350  24.5955930  28.9137320  70.1716620  23.9950690  28.3121300
  69.5954270  28.4001890  18.7620090  68.9530430  27.7457510  19.0363810
  69.2084930  28.8056980  17.9860760  65.1740750  25.7287320  22.6091780
  65.5264570  25.1315450  21.9493150  64.2903080  25.4031550  22.7800030
  61.2604030  26.4885010  20.0162190  61.9475160  27.0354220  20.3969780
  60.4736450  27.0325740  20.0511800  53.3996430  22.1057830  15.5079270
  54.2691280  22.3882630  15.7915190  52.9086750  22.9193700  15.3928080
  60.5631240  23.4931040  19.6287550  61.0194020  24.3036290  19.8547740
  60.2119450  23.1754180  20.4606040  56.4643020  13.8368690  20.1010070
  56.3357650  13.8286590  21.0494990  55.6405040  14.1751780  19.7501080
  67.9851650  27.2918350  15.2996440  67.7589230  26.5748790  15.8921080
  67.5947850  27.0430790  14.4618190  65.9133550  27.8064630  28.7793360
  66.2489790  28.3931320  29.4571280  64.9933890  27.6757340  29.0091150
  53.7667680  31.3185210  16.0740900  54.1265320  31.9174550  15.4198170
  53.6260020  31.8645100  16.8475930  53.4636950  15.5959810  29.5616770
  52.7495470  15.7956730  30.1669380  53.8831990  14.8199380  29.9331570
  67.5667900  25.2090290  16.9610600  67.2789600  25.6702980  17.7488480
  68.3620070  24.7488060  17.2294820  59.7836300  28.7016410  16.8914570
  59.7746400  29.4346100  16.2759080  58.8634660  28.4547990  16.9841530
  55.3842940  23.9231300  17.6361330  54.7770890  24.6630200  17.6456630
  55.8592290  24.0130660  16.8099530  64.9575730  18.0882120  27.3118220
  65.3256550  17.2677330  27.6397790  64.0973930  18.1484010  27.7273870
  68.3237760  17.0439060  18.1205780  67.6950920  17.1484730  17.4064010
  67.8289680  17.2635840  18.9099660  62.7695900  28.7644650  15.5539760
  62.8707880  28.5608640  14.6241740  61.8697640  28.5102930  15.7587540
  60.2921790  19.3225010  19.5363660  59.5837940  19.7911350  19.9777270
  60.5766270  18.6647020  20.1708850  64.3237220  16.0475670  20.9759450
  64.2005000  16.0661800  20.0268960  65.2721780  16.0954610  21.0957850
  61.4114010  31.2830970  20.2487430  61.6655510  31.2452360  19.3266800
  60.4626490  31.1564300  20.2415680  58.4956810  17.6310090  16.9114370
  59.3447340  18.0680240  16.8454560  58.1288080  17.9430350  17.7386430
  69.1244580  16.9589670  28.3784580  68.6218180  17.6995070  28.7178390
  69.9401240  17.3473670  28.0621370  67.4166590  22.2022850  21.8245940
  66.4756730  22.2173080  21.9993630  67.7310660  21.4158810  22.2706240
  57.3948230  23.8842450  15.3849900  58.1611500  23.7723810  15.9475330
  57.4722920  23.1880420  14.7326670  56.0894990  21.3167520  16.0682790
  56.1698580  20.3695030  16.1800190  56.9814740  21.6474400  16.1743450
  69.4192170  29.3731700  23.5000200  69.5439590  30.1962870  23.9724010
  70.2857730  29.1622430  23.1524350  53.7755180  27.5336480  19.0458840
  52.8494960  27.7757620  19.0364250  54.2411610  28.3610740  18.9243590
  60.0012010  30.6393220  14.9942900  60.7940620  30.9282050  14.5424690
  59.4816360  30.2085390  14.3155380  69.0542180  29.8663350  16.4179640
  68.7683690  29.4528490  15.6033820  68.8561730  30.7951060  16.2980160
  60.5189410  25.8596630  14.8585250  60.4140050  25.2448980  15.5846630
  60.3513630  25.3362520  14.0748260  63.7592140  24.9216660  15.4627240
  63.2102240  25.3685960  16.1069980  64.3811400  24.4165910  15.9864910
  67.8127080  26.2758760  31.3949500  68.5536550  26.6134520  30.8916960
  67.0499760  26.4450820  30.8419270  59.4267260  23.8807580  17.3592540
  59.8483680  23.7147450  18.2023930  59.5518100  23.0707810  16.8647680
  61.9394900  22.9045190  14.6069640  62.4600560  22.1894210  14.2410790
  62.5863300  23.5431060  14.9070150  66.4872740  24.3273590  29.9304710
  66.9013760  24.4818670  30.7795130  65.5523740  24.4528810  30.0930490
  66.9594910  21.6669750  31.9343860  67.5415680  20.9122070  31.8464340
  67.1356680  22.1977190  31.1575340  58.0766980  16.8266500  30.2460810
  57.9823850  16.2087250  29.5211680  57.4964370  17.5532790  30.0190720
  60.8428420  15.3839740  27.2788200  60.3945720  15.4064000  26.4333750
  60.2093620  14.9858760  27.8758500  63.5851870  22.0110250  29.2838480
  63.7048080  21.4151390  30.0233320  64.4445870  22.0479940  28.8639780
  65.9239770  22.5647440  27.8600990  65.3974990  23.0890060  27.2566130
  66.2671110  23.1974830  28.4910720  58.3226160  19.9540810  14.3050700
  58.1215220  19.0908170  14.6664040  58.1518210  19.8674170  13.3672300
  60.3520640  18.5531600  30.5414300  60.9420330  18.2447450  31.2292120
  59.5340880  18.0811350  30.6974200  65.1714070  18.1697410  30.7747320
  64.4829590  17.5078950  30.7097310  65.8920090  17.7235680  31.2195780
  65.8014470  14.7649040  16.8337580  66.0816760  13.9216940  17.1897000
  65.0280200  14.9972150  17.3476330  57.1208960  17.0541430  14.2928580
  57.4234860  17.0608860  13.3847730  57.8603550  16.7039290  14.7896240
  60.3393890  15.9976050  15.2784780  59.9915890  15.3200040  14.6987230
  60.5406660  15.5365560  16.0928170  62.5042930  30.9856800  16.8971380
  63.3993720  31.3241770  16.9190140  62.5360560  30.2636210  16.2695660
  56.1439090  26.3583850  15.1258380  56.5813960  26.9013520  15.7815960
  56.6286820  25.5330800  15.1354720  57.9546810  27.4781890  20.2380610
  57.6542350  27.3546860  21.1384520  57.8484300  26.6190480  19.8296340
  69.4837280  29.5160470  29.6037580  68.8839270  29.5753030  28.8601500
  69.6131180  28.5765450  29.7334430  70.7238730  27.2578290  14.9407290
  69.8931690  27.3254940  15.4114520  70.9010560  28.1482410  14.6374150
  70.1795190  24.0025770  17.4441490  70.9414100  24.5722420  17.5501180
  70.1949560  23.4352970  18.2149800  53.6799530  22.5263700  21.6749150
  53.0248370  22.2575340  21.0308850  54.5177480  22.4168180  21.2251130
  71.1855160  24.8575870  22.2883420  71.5563990  24.0743190  21.8819390
  71.8257090  25.5464970  22.1100720  68.1688920  26.2412450  27.7013740
  67.3548760  26.6709610  27.9639530  68.5763120  26.8530860  27.0882790
  70.2314360  24.2960140  14.6014010  70.5063200  25.2039020  14.4733230
  70.0425100  24.2322670  15.5376000  66.6289970  17.3204990  15.8967640
  67.0474850  17.1335970  15.0564300  66.3226030  16.4684040  16.2070570
  70.1279700  22.2329130  19.5943440  69.7523300  21.4657060  19.1624730
  69.3982820  22.6151830  20.0818370  69.5179320  21.3800650  29.2282960
  69.2865410  21.1513400  28.3280910  69.7783870  22.3000200  29.1827850
  67.9567390  16.6057080  32.0062660  68.8337570  16.6140480  32.3896660
  67.9688230  15.8687920  31.3955010  52.8937610  19.7362630  17.6174480
  51.9901690  19.9992830  17.4426140  53.3778230  20.0073800  16.8374440
  69.4030660  20.4586620  22.8950680  69.9268140  19.9649270  22.2640850
  69.9890080  20.5936980  23.6398250  69.5820380  20.5426490  26.4170230
  68.6323090  20.5090030  26.5315220  69.7633390  21.4526600  26.1820000
  55.4364820  18.7928170  15.5268860  56.1456520  18.3711390  15.0416140
  54.7204760  18.8603400  14.8952210  55.0838980  14.8467500  14.5671510
  55.8067110  15.3876440  14.8852730  55.3563500  14.5730920  13.6913050
  68.8930630  19.7159970  18.8343090  69.3889750  19.4830840  19.6191970
  68.6946700  18.8771810  18.4180730  54.7731170  14.0973690  24.4694130
  55.4207360  13.5471070  24.0289290  55.1933010  14.3516840  25.2909940
  70.3217790  18.3520920  21.3680770  70.2117070  18.1976960  22.3063040
  71.0825380  17.8241860  21.1256180  68.6683510  14.2915050  27.8263770
  69.3055730  14.9049190  28.1922960  68.8158400  14.3275710  26.8813000
  71.2108060  16.1828840  14.6086910  72.1357370  16.0510020  14.4005200
  71.1883850  16.2621660  15.5623360  71.2846550  16.9539500  17.2343620
  70.4898050  16.8884620  17.7636530  71.4889830  17.8890140  17.2228970
  68.2264970  30.9931050  21.2282010  68.8224040  30.6715620  20.5516430
  68.4843120  30.5202870  22.0195280  54.5263170  14.2529360  27.2119450
  54.1777990  14.7093180  27.9777630  54.1950870  13.3586490  27.2941880
  62.0387990  15.4441240  30.7338870  61.9776880  16.0363070  31.4834280
  62.9788370  15.3367200  30.5889130  64.6762550  15.1011300  30.3731160
  65.2902960  15.4190590  29.7112240  65.2212110  14.6159890  30.9927020
  71.0937730  31.0002930  27.7793000  70.5996010  31.3971800  27.0620130
  70.4851020  30.3752140  28.1730280  55.1983810  13.7805560  30.4870220
  55.7466800  13.5993610  29.7236330  55.2639120  12.9899670  31.0226530
  65.4170590  13.6643440  26.7000450  64.5430430  13.9978550  26.4973380
  65.3081340  13.1916620  27.5252320  66.3242570  15.8714310  28.0842170
  65.9955930  15.0566070  27.7043900  67.2724870  15.8284120  27.9607860
  68.7777180  31.6426350  25.0579740  68.3180150  32.3942160  24.6837760
  68.1489640  30.9232820  24.9994540  63.1645410  14.5813280  25.6393360
  62.3817200  15.0558780  25.9190120  62.8708340  13.6768110  25.5306540
  67.7166480  15.2836380  23.6842450  68.1574570  15.2281480  22.8364050
  67.4474070  16.1994390  23.7552630  69.5805050  14.9151620  21.6951270
  69.5193450  13.9712840  21.5482290  70.3597080  15.0231710  22.2404730
  53.8857800  31.0543980  20.6575220  53.7179840  30.4214660  21.3557110
  53.0192310  31.2603380  20.3069410  54.5085820  14.8860760  18.1607080
  55.2665180  14.9989640  17.5871110  54.0462990  15.7229960  18.1150510
  61.0499630  17.0000030  21.1509390  60.2374140  16.6256920  20.8105270
  61.5541270  16.2445110  21.4530580  65.5524610  13.6642480  22.3892460
  66.1553980  14.2362690  22.8640980  64.8117600  14.2281920  22.1666360
  68.6959210  14.0664040  17.6632740  68.8909840  14.9647490  17.9300170
  67.9089080  13.8351120  18.1565690  55.4920500  29.7477210  18.1025360
  54.9668120  30.1285240  17.3987320  55.4165080  30.3727980  18.8235070
  56.8810970  15.4124810  16.7009050  57.4103730  14.6254610  16.5717000
  57.5139290  16.0916000  16.9344580  59.0748810  15.1499950  19.7554440
  58.4451550  14.4487260  19.9224570  58.5353950  15.9104080  19.5387600
  70.2485820  31.3064750  19.4239300  70.4238010  30.6202490  18.7800220
  69.5507390  31.8311800  19.0315970  59.2004370  14.4283930  32.1906930
  58.9188640  14.9317530  31.4267750  59.5824070  13.6305680  31.8249060
  58.0913470  31.6959590  16.9774610  58.8232290  31.4118870  16.4298500
  58.3507140  31.4572870  17.8673990  57.2528260  27.8124320  16.9820940
  56.6237140  28.2809420  17.5306770  57.3676090  26.9673540  17.4167130
  65.8019830  13.8437510  32.7687400  65.6885280  14.1632120  33.6638920
  66.6189570  14.2450020  32.4724680  64.7077980  21.8629980   3.1322140
  64.6272030  20.9484590   2.8613850  64.2942400  22.3597050   2.4261850
  62.8396020  23.6409000   5.0131410  62.0638120  23.1609440   5.3029980
  63.4908950  22.9614650   4.8387570  56.8561850  23.9528810   5.8907170
  56.0246730  23.6977520   6.2903680  57.4642830  24.0239580   6.6265090
  66.8603450  28.0469190   3.7930540  66.3984980  27.2756430   4.1217710
  67.6729000  28.0735260   4.2982990  56.8363110  27.9868900   6.0865190
  57.1391150  27.0966640   5.9075410  57.5806700  28.5439120   5.8587440
  53.2286810  21.5136350   5.5589260  53.8002920  20.7458550   5.5592900
  53.2288350  21.8125110   4.6495870  63.0866760  30.3327200   3.4134530
  62.4678200  30.7884700   2.8428970  63.9418540  30.4878660   3.0124230
  62.2805010  26.3166190   5.0201570  62.2113290  25.3756130   4.8590700
  63.0424870  26.4067600   5.5924140  54.4711680  16.9220710   7.3458190
  54.2914520  16.0246460   7.6260950  54.0691760  17.4692580   8.0205140
  63.3110180  19.1236570   5.2470500  63.6875000  18.2508450   5.1344170
  63.2129690  19.4595270   4.3560940  67.0934300  16.6187010   2.1798840
  67.9143920  16.1283580   2.2224320  67.1268380  17.2084670   2.9330680
  55.0898350  19.4181210   5.9540530  55.7708460  19.6819580   6.5727930
  54.7746400  18.5782080   6.2878540  59.2822920  20.4648570   5.0413120
  59.7901140  20.9629540   5.6818140  59.8136160  19.6883770   4.8652480
  71.3833850  18.6353760   8.7442470  70.6786020  19.0235470   8.2257580
  71.6491770  19.3304050   9.3463400  57.5659020  15.1047130   9.3076540
  57.5677460  15.6219520   8.5022440  56.7363330  14.6277310   9.2846470
  58.8161870  24.7442310   7.4850040  58.4831250  25.3711230   8.1271110
  58.9928550  25.2704190   6.7051710  67.3295780  18.5587390   4.9526380
  66.6251350  18.8472280   5.5329490  67.6907940  19.3687500   4.5925940
  57.2474350  16.8157090   7.3146990  57.5891160  17.6599140   7.0200860
  56.3090160  16.9640830   7.4312330  58.0280970  26.7123110   9.2999220
  58.6454970  27.3874190   9.0183670  57.1674090  27.1211090   9.2086720
  68.9458560  28.1762520   7.2153860  68.2622080  28.8461630   7.2070530
  69.4852850  28.3743170   6.4498720  70.3982700  18.0042180   5.3435590
  69.4507610  18.0381160   5.4751020  70.7232690  18.8181130   5.7284950
  60.9302240  14.3039360   3.6391580  61.2377220  13.7486250   2.9227080
  60.0002940  14.4383820   3.4564570  66.4817300  30.0206650   5.9299040
  66.4944460  29.6168940   5.0621300  65.9292520  30.7953940   5.8260470
  65.8802740  24.9236490   7.2581650  66.2971530  24.7096600   6.4235110
  66.6042560  25.1809280   7.8290270  69.8264840  23.3223710   7.3497890
  68.9983470  23.3916800   6.8748020  70.4215320  23.9078020   6.8813720
  66.7906850  20.1093030   8.2952760  66.3778030  20.9346740   8.5492750
  66.0582800  19.5238070   8.1029120  58.9239640  22.8952930   3.1571430
  58.5196640  22.1830180   2.6617330  59.0102760  22.5506170   4.0459470
  59.3921340  26.5820490   5.3210640  59.0949630  25.9765960   4.6418420
  60.3421160  26.6197800   5.2100000  57.6368260  19.6696140   6.9370470
  58.1882850  19.7791480   6.1623720  58.1511770  20.0433740   7.6525700
  67.4806950  30.1552360   8.9833740  67.0037510  30.9624550   8.7906350
  66.7968740  29.5030690   9.1359950  58.4839770  26.3202180  11.9718440
  57.5868300  26.5442150  12.2191840  58.5092640  26.4437120  11.0229840
  57.3110990  23.1915500  10.5475810  57.1718760  24.0638300  10.9163210
  56.4292350  22.8488310  10.4023750  63.6340370  28.1091370   1.8540940
  64.0736280  28.8515700   1.4396330  63.5727260  28.3517940   2.7779900
  59.1091340  29.1337200  12.7560960  59.0806770  29.5380150  11.8889390
  58.9456310  28.2047560  12.5932560  71.0606160  29.9164300  14.0525130
  71.5365880  30.3947190  14.7314210  71.6813320  29.8481790  13.3270630
  53.2629640  24.9613050   6.4646720  53.3410060  25.0961820   5.5202440
  53.8771320  24.2528940   6.6574840  54.5077270  26.6613240   2.8752900
  54.1005350  26.8027830   2.0206500  55.3990280  26.3773400   2.6724110
  70.4639410  27.1077150  11.2125140  70.5902470  26.8689030  10.2942320
  70.5060790  26.2761690  11.6847220  64.3256150  30.8105150   9.7819950
  64.8400820  30.7213160  10.5842380  63.4825230  31.1564850  10.0747860
  65.5686610  30.2310760   1.8450440  66.0243560  29.4500140   2.1589060
  65.9079130  30.9417580   2.3891620  70.3163420  19.1609610  12.1774880
  69.7007690  19.6689280  11.6490340  69.9959840  18.2607940  12.1200820
  53.3189160  26.0027220   9.0041180  53.4820200  25.5332580   8.1860550
  53.7841610  25.4950780   9.6690020  58.0907930  15.1332980   4.0401750
  57.6476080  15.9142520   3.7086270  58.6492920  15.4562870   4.7472690
  62.3777740  18.0001500   9.6437070  61.9157110  18.2084520  10.4557010
  61.9755850  17.1860850   9.3407740  67.3782250  19.2210450  10.7733730
  66.5275840  18.9216200  11.0942800  67.2184040  19.4652460   9.8617550
  64.4731960  20.7212200  12.8732520  64.7985370  19.8875950  12.5334750
  65.2612290  21.2440720  13.0210850  60.1283830  15.6780310   5.8991350
  60.4256160  16.5843140   5.8183370  60.6769390  15.1899090   5.2850920
  57.8822150  20.2566550   1.7683000  57.6563070  20.0403720   2.6729620
  57.1014680  20.6895010   1.4228970  60.3221360  21.1552130  12.4343270
  60.2264960  20.2146860  12.2843670  61.1653340  21.3767200  12.0391340
  63.7184780  18.8993460   2.3976930  64.1114350  19.2165660   1.5845620
  64.0801630  18.0205340   2.5121450  55.4531900  17.5665800  10.5877050
  55.0595290  18.4141010  10.7949830  54.7650300  16.9292170  10.7785690
  62.0276950  17.6500770  13.6573790  61.3375270  17.4572970  14.2919880
  62.7709250  17.9335410  14.1898090  52.7548950  15.4894260   4.6207130
  52.4662000  16.0597120   5.3332110  53.4994710  15.0098710   4.9838360
  64.3039920  21.4899210   6.4927710  63.5721040  21.9986020   6.8417810
  63.9064260  20.6729190   6.1916490  60.7417310  18.1653410   4.8980200
  60.7453370  17.7243360   4.0484740  61.6368430  18.4870740   5.0052020
  56.5919690  18.0479900   3.8574410  56.2519740  18.5255130   4.6141460
  55.8297010  17.5945020   3.4975510  64.7665830  16.9432890   5.9050650
  64.7838570  17.3941540   6.7492500  64.5181410  16.0438530   6.1184090
  68.1936580  14.3565070  11.7437030  68.5182350  13.6254730  12.2695010
  68.2293090  14.0378710  10.8418020  54.8928140  25.3778650  11.1636990
  54.5082930  24.7372320  11.7619950  55.2040330  26.0814770  11.7331720
  61.0425280  22.2255190   6.6445610  61.4095410  21.7513760   7.3906950
  60.8530340  23.0996760   6.9853950  53.9065770  16.9698880   2.7739080
  53.6212690  16.6054550   3.6117700  53.8444630  16.2379340   2.1602220
  58.8324650  21.2663830   8.9629820  58.5281720  22.1455810   9.1880180
  59.7871110  21.3263620   8.9987260  68.1194420  24.4690180   5.3523060
  68.8393540  24.9645470   4.9619170  67.9176240  23.7908070   4.7076930
  63.5013220  24.5399240  11.2392060  63.4350530  23.6194910  10.9849650
  62.8718360  24.6374680  11.9536700  57.4043840  25.1405200   3.1975480
  57.9222510  24.3373460   3.1432370  56.9527860  25.0784340   4.0392310
  54.8888380  22.1066570  10.1101180  54.5303320  22.7720420  10.6974520
  54.5942940  21.2750120  10.4813800  58.0901500  22.5650810  12.9940730
  57.7901640  22.7107990  12.0968550  58.8612740  22.0056100  12.9014120
  63.4329950  27.3619810  10.9895860  63.4474490  26.4300770  10.7714770
  62.7255050  27.4479570  11.6285630  69.6441160  24.0027150  10.3364440
  68.9189350  24.5955930  10.1393830  70.1716620  23.9950690   9.5377810
  65.1740750  25.7287320   3.8348290  65.5264570  25.1315450   3.1749660
  64.2903080  25.4031550   4.0056540  62.8663850  29.0037380   8.0836360
  63.5106070  29.2096760   8.7609780  63.2293290  28.2425780   7.6307210
  64.1395930  27.0069730   6.8013810  64.7818160  26.3062890   6.9145980
  64.6645280  27.7868170   6.6210700  65.9133550  27.8064630  10.0049870
  66.2489790  28.3931320  10.6827790  64.9933890  27.6757340  10.2347660
  53.4636950  15.5959810  10.7873280  52.7495470  15.7956730  11.3925890
  53.8831990  14.8199380  11.1588080  53.7509540  29.5840070  11.7739810
  53.8600660  28.6434810  11.6335200  53.0990100  29.8494820  11.1253540
  61.7422130  27.8555960  13.1737930  61.4219000  27.1365200  13.7183620
  61.0680490  28.5311030  13.2473990  64.9575730  18.0882120   8.5374730
  65.3256550  17.2677330   8.8654300  64.0973930  18.1484010   8.9530380
  61.9177720  20.7421710   8.7612700  62.4162970  21.2167530   9.4264550
  62.0600670  19.8185230   8.9682730  69.1244580  16.9589670   9.6041090
  68.6218180  17.6995070   9.9434900  69.9401240  17.3473670   9.2877880
  67.4166590  22.2022850   3.0502450  66.4756730  22.2173080   3.2250140
  67.7310660  21.4158810   3.4962750  69.4192170  29.3731700   4.7256710
  69.5439590  30.1962870   5.1980520  70.2857730  29.1622430   4.3780860
  56.8909700  31.4662910   4.3973840  57.6272180  30.9178370   4.6682410
  57.2750620  32.3318920   4.2579830  55.8967980  30.6508980  13.5859420
  56.6980710  30.9721030  13.9994820  55.3819800  30.2904560  14.3079330
  64.7332610  26.7588850  13.5334830  64.1270770  26.7820450  12.7930580
  64.4286720  26.0271890  14.0702080  66.1632980  30.4869140  12.1444240
  67.1154730  30.4027160  12.0944480  66.0161200  31.1510850  12.8178030
  53.6165790  23.1382440  12.5295470  54.1204810  22.5589720  13.1011700
  52.8773210  23.4222670  13.0671840  60.6703730  24.5453430  12.0630990
  59.9049400  25.1138430  11.9785660  60.8519690  24.2529640  11.1699220
  67.8127080  26.2758760  12.6206010  68.5536550  26.6134520  12.1173470
  67.0499760  26.4450820  12.0675780  55.6488870  21.2812030  13.4245540
  55.6894210  20.9825900  14.3330770  56.5034370  21.6819640  13.2653060
  57.5894680  19.8604130  11.3920030  57.0591140  19.3695080  10.7643370
  58.2582750  20.2888330  10.8577960  66.4872740  24.3273590  11.1561220
  66.9013760  24.4818670  12.0051640  65.5523740  24.4528810  11.3187000
  66.9594910  21.6669750  13.1600370  67.5415680  20.9122070  13.0720850
  67.1356680  22.1977190  12.3831850  58.0766980  16.8266500  11.4717320
  57.9823850  16.2087250  10.7468190  57.4964370  17.5532790  11.2447230
  60.8428420  15.3839740   8.5044710  60.3945720  15.4064000   7.6590260
  60.2093620  14.9858760   9.1015010  61.2487970  24.2794070   9.1257150
  61.6676080  25.1226800   8.9533390  60.3296600  24.4166110   8.8963930
  63.5851870  22.0110250  10.5094990  63.7048080  21.4151390  11.2489830
  64.4445870  22.0479940  10.0896290  65.9239770  22.5647440   9.0857500
  65.3974990  23.0890060   8.4822640  66.2671110  23.1974830   9.7167230
  59.0995390  30.5847080  10.2414880  58.5616480  31.3093140   9.9223580
  59.3529350  30.1077420   9.4512220  60.3520640  18.5531600  11.7670810
  60.9420330  18.2447450  12.4548630  59.5340880  18.0811350  11.9230710
  65.1714070  18.1697410  12.0003830  64.4829590  17.5078950  11.9353820
  65.8920090  17.7235680  12.4452290  61.9557600  31.8198290  10.5001530
  61.8816300  32.7233430  10.8073900  61.0536440  31.5010190  10.4723600
  53.3584890  29.1472880   3.8035150  53.6887900  28.2793940   3.5713790
  53.7875890  29.3531400   4.6340110  53.8475100  30.0143470   6.5416780
  53.4106090  30.1944270   7.3740930  54.4152780  30.7718090   6.3998500
  69.4837280  29.5160470  10.8294090  68.8839270  29.5753030  10.0858010
  69.6131180  28.5765450  10.9590940  53.6799530  22.5263700   2.9005660
  53.0248370  22.2575340   2.2565360  54.5177480  22.4168180   2.4507640
  71.1855160  24.8575870   3.5139930  71.5563990  24.0743190   3.1075900
  71.8257090  25.5464970   3.3357230  68.1688920  26.2412450   8.9270250
  67.3548760  26.6709610   9.1896040  68.5763120  26.8530860   8.3139300
  54.7175460  22.9116270   7.4409000  55.0848500  22.8243670   8.3205020
  54.1486280  22.1482820   7.3415860  69.5179320  21.3800650  10.4539470
  69.2865410  21.1513400   9.5537420  69.7783870  22.3000200  10.4084360
  54.2691460  19.8225360  11.3467420  53.3747510  19.7892120  11.6861130
  54.8089010  20.0212150  12.1118670  67.9567390  16.6057080  13.2319170
  68.8337570  16.6140480  13.6153170  67.9688230  15.8687920  12.6211520
  69.4030660  20.4586620   4.1207190  69.9268140  19.9649270   3.4897360
  69.9890080  20.5936980   4.8654760  69.5820380  20.5426490   7.6426740
  68.6323090  20.5090030   7.7571730  69.7633390  21.4526600   7.4076510
  54.7731170  14.0973690   5.6950640  55.4207360  13.5471070   5.2545800
  55.1933010  14.3516840   6.5166450  70.3217790  18.3520920   2.5937280
  70.2117070  18.1976960   3.5319550  71.0825380  17.8241860   2.3512690
  68.6683510  14.2915050   9.0520280  69.3055730  14.9049190   9.4179470
  68.8158400  14.3275710   8.1069510  68.2264970  30.9931050   2.4538520
  68.8224040  30.6715620   1.7772940  68.4843120  30.5202870   3.2451790
  54.5263170  14.2529360   8.4375960  54.1777990  14.7093180   9.2034140
  54.1950870  13.3586490   8.5198390  56.1327540  27.4248960  12.6029150
  56.0897170  27.0541870  13.4843610  56.2638550  28.3626530  12.7430970
  59.8333570  28.9808550   8.2038870  59.5924930  29.2483110   7.3169390
  60.7736210  29.1514280   8.2589730  62.0387990  15.4441240  11.9595380
  61.9776880  16.0363070  12.7090790  62.9788370  15.3367200  11.8145640
  64.6762550  15.1011300  11.5987670  65.2902960  15.4190590  10.9368750
  65.2212110  14.6159890  12.2183530  71.0937730  31.0002930   9.0049510
  70.5996010  31.3971800   8.2876640  70.4851020  30.3752140   9.3986790
  55.1983810  13.7805560  11.7126730  55.7466800  13.5993610  10.9492840
  55.2639120  12.9899670  12.2483040  55.9715570  30.3711210   9.7226930
  55.3775890  30.2395910  10.4616970  55.9639410  29.5349350   9.2569030
  65.4170590  13.6643440   7.9256960  64.5430430  13.9978550   7.7229890
  65.3081340  13.1916620   8.7508830  66.3242570  15.8714310   9.3098680
  65.9955930  15.0566070   8.9300410  67.2724870  15.8284120   9.1864370
  68.7777180  31.6426350   6.2836250  68.3180150  32.3942160   5.9094270
  68.1489640  30.9232820   6.2251050  55.6027800  27.7369590   8.6734970
  54.8761860  27.1174880   8.6060920  55.6636950  28.1310200   7.8033050
  59.2072900  29.9514590   5.4584380  59.7237920  29.3401950   4.9332640
  59.8570280  30.4543370   5.9495390  61.9468400  30.8423080   6.2853360
  62.2346210  30.5877380   5.4086370  62.4591620  30.2900440   6.8758930
  63.1645410  14.5813280   6.8649870  62.3817200  15.0558780   7.1446630
  62.8708340  13.6768110   6.7563050  67.7166480  15.2836380   4.9098960
  68.1574570  15.2281480   4.0620560  67.4474070  16.1994390   4.9809140
  69.5805050  14.9151620   2.9207780  69.5193450  13.9712840   2.7738800
  70.3597080  15.0231710   3.4661240  53.8857800  31.0543980   1.8831730
  53.7179840  30.4214660   2.5813620  53.0192310  31.2603380   1.5325920
  61.0499630  17.0000030   2.3765900  60.2374140  16.6256920   2.0361780
  61.5541270  16.2445110   2.6787090  65.5524610  13.6642480   3.6148970
  66.1553980  14.2362690   4.0897490  64.8117600  14.2281920   3.3922870
  62.0140760  31.7639180  13.6521560  62.9408070  31.5283450  13.6957520
  61.9991190  32.5911180  13.1707590  59.2004370  14.4283930  13.4163440
  58.9188640  14.9317530  12.6524260  59.5824070  13.6305680  13.0505570
  65.8019830  13.8437510  13.9943910  65.6885280  14.1632120  14.8895430
  66.6189570  14.2450020  13.6981190  68.5818320  30.9909040  13.4762600
  69.3743640  30.4958270  13.2688560  68.8751470  31.6699180  14.0838210
  64.7077980   3.0886490  78.2296100  64.6272030   2.1741100  77.9587810
  64.2942400   3.5853560  77.5235810  62.8396020   4.8665510  80.1105370
  62.0638120   4.3865950  80.4003940  63.4908950   4.1871160  79.9361530
  56.8561850   5.1785320  80.9881130  56.0246730   4.9234030  81.3877640
  57.4642830   5.2496090  81.7239050  66.8603450   9.2725700  78.8904500
  66.3984980   8.5012940  79.2191670  67.6729000   9.2991770  79.3956950
  56.8363110   9.2125410  81.1839150  57.1391150   8.3223150  81.0049370
  57.5806700   9.7695630  80.9561400  53.2286810   2.7392860  80.6563220
  53.8002920   1.9715060  80.6566860  53.2288350   3.0381620  79.7469830
  63.0866760  11.5583710  78.5108490  62.4678200  12.0141210  77.9402930
  63.9418540  11.7135170  78.1098190  62.2805010   7.5422700  80.1175530
  62.2113290   6.6012640  79.9564660  63.0424870   7.6324110  80.6898100
  63.9530110   6.4422950  75.9040400  63.3347380   6.9072400  75.3403120
  64.4653360   7.1350430  76.3209910  58.8161870   5.9698820  82.5824000
  58.4831250   6.5967740  83.2245070  58.9928550   6.4960700  81.8025670
  53.3213310   7.1279480  73.2780030  52.9441290   7.6166580  72.5464930
  53.5786380   7.8004760  73.9086560  68.9458560   9.4019030  82.3127820
  68.2622080  10.0718140  82.3044490  69.4852850   9.5999680  81.5472680
  66.4817300  11.2463160  81.0273000  66.4944460  10.8425450  80.1595260
  65.9292520  12.0210450  80.9234430  67.7762720   7.9679380  76.1163170
  67.6659050   7.0253710  76.2412590  67.7730970   8.3295020  77.0025930
  65.8802740   6.1493000  82.3555610  66.2971530   5.9353110  81.5209070
  66.6042560   6.4065790  82.9264230  63.3183000   3.5944700  75.4725660
  62.3912280   3.5282080  75.7014130  63.4707820   4.5324830  75.3580900
  69.8264840   4.5480220  82.4471850  68.9983470   4.6173310  81.9721980
  70.4215320   5.1334530  81.9787680  67.3480290   5.1565000  75.9760910
  66.7292710   4.8184550  75.3287210  67.3304740   4.5124760  76.6840100
  58.9239640   4.1209440  78.2545390  58.5196640   3.4086690  77.7591290
  59.0102760   3.7762680  79.1433430  59.3921340   7.8077000  80.4184600
  59.0949630   7.2022470  79.7392380  60.3421160   7.8454310  80.3073960
  65.5244990   4.3951810  72.9833660  65.9638270   3.5574240  72.8371480
  66.2373410   5.0281210  73.0697800  63.6340370   9.3347880  76.9514900
  64.0736280  10.0772210  76.5370290  63.5727260   9.5774450  77.8753860
  55.6244270   3.0154420  75.7552040  55.5041870   3.7416510  75.1433310
  55.3145160   2.2457330  75.2779950  53.2629640   6.1869560  81.5620680
  53.3410060   6.3218330  80.6176400  53.8771320   5.4785450  81.7548800
  54.5077270   7.8869750  77.9726860  54.1005350   8.0284340  77.1180460
  55.3990280   7.6029910  77.7698070  66.3010550  12.3217000  74.3077910
  66.1411690  12.0319940  75.2059740  66.1357260  11.5457130  73.7723140
  58.7798930  12.1015530  76.0849530  58.6041410  11.1851070  75.8717330
  57.9254670  12.4602820  76.3247330  66.0036680   9.8304560  72.8675910
  65.3101840   9.8281850  72.2078190  66.7459540   9.4063880  72.4370080
  65.5686610  11.4567270  76.9424400  66.0243560  10.6756650  77.2563020
  65.9079130  12.1674090  77.4865580  64.3039920   2.7155720  81.5901670
  63.5721040   3.2242530  81.9391770  63.9064260   1.8985700  81.2890450
  59.8158960   2.7023140  72.3844220  59.2475860   2.2541390  71.7580130
  60.5247960   3.0615920  71.8509370  61.0425280   3.4511700  81.7419570
  61.4095410   2.9770270  82.4880910  60.8530340   4.3253270  82.0827910
  57.3606440   6.6981330  74.6570630  56.5868700   6.1578950  74.4969350
  58.0901070   6.1787940  74.3188390  68.1194420   5.6946690  80.4497020
  68.8393540   6.1901980  80.0593130  67.9176240   5.0164580  79.8050890
  57.4043840   6.3661710  78.2949440  57.9222510   5.5629970  78.2406330
  56.9527860   6.3040850  79.1366270  62.2913340   7.6327990  73.5676740
  62.6329040   8.3770220  73.0720060  61.4626050   7.9459110  73.9301570
  68.5667020   2.7716140  72.3568430  68.4830740   3.2030360  71.5064870
  69.2861210   3.2314490  72.7895250  69.5954270   9.6258400  75.0850560
  68.9530430   8.9714020  75.3594280  69.2084930  10.0313490  74.3091230
  65.1740750   6.9543830  78.9322250  65.5264570   6.3571960  78.2723620
  64.2903080   6.6288060  79.1030500  61.2604030   7.7141520  76.3392660
  61.9475160   8.2610730  76.7200250  60.4736450   8.2582250  76.3742270
  53.3996430   3.3314340  71.8309740  54.2691280   3.6139140  72.1145660
  52.9086750   4.1450210  71.7158550  60.5631240   4.7187550  75.9518020
  61.0194020   5.5292800  76.1778210  60.2119450   4.4010690  76.7836510
  64.1395930   8.2326240  81.8987770  64.7818160   7.5319400  82.0119940
  64.6645280   9.0124680  81.7184660  67.9851650   8.5174860  71.6226910
  67.7589230   7.8005300  72.2151550  67.5947850   8.2687300  70.7848660
  53.7667680  12.5441720  72.3971370  54.1265320  13.1431060  71.7428640
  53.6260020  13.0901610  73.1706400  67.5667900   6.4346800  73.2841070
  67.2789600   6.8959490  74.0718950  68.3620070   5.9744570  73.5525290
  59.7836300   9.9272920  73.2145040  59.7746400  10.6602610  72.5989550
  58.8634660   9.6804500  73.3072000  55.3842940   5.1487810  73.9591800
  54.7770890   5.8886710  73.9687100  55.8592290   5.2387170  73.1330000
  62.7695900   9.9901160  71.8770230  62.8707880   9.7865150  70.9472210
  61.8697640   9.7359440  72.0818010  61.4114010  12.5087480  76.5717900
  61.6655510  12.4708870  75.6497270  60.4626490  12.3820810  76.5646150
  67.4166590   3.4279360  78.1476410  66.4756730   3.4429590  78.3224100
  67.7310660   2.6415320  78.5936710  57.3948230   5.1098960  71.7080370
  58.1611500   4.9980320  72.2705800  57.4722920   4.4136930  71.0557140
  56.0894990   2.5424030  72.3913260  56.1698580   1.5951540  72.5030660
  56.9814740   2.8730910  72.4973920  69.4192170  10.5988210  79.8230670
  69.5439590  11.4219380  80.2954480  70.2857730  10.3878940  79.4754820
  56.8909700  12.6919420  79.4947800  57.6272180  12.1434880  79.7656370
  57.2750620  13.5575430  79.3553790  53.7755180   8.7592990  75.3689310
  52.8494960   9.0014130  75.3594720  54.2411610   9.5867250  75.2474060
  60.0012010  11.8649730  71.3173370  60.7940620  12.1538560  70.8655160
  59.4816360  11.4341900  70.6385850  69.0542180  11.0919860  72.7410110
  68.7683690  10.6785000  71.9264290  68.8561730  12.0207570  72.6210630
  60.5189410   7.0853140  71.1815720  60.4140050   6.4705490  71.9077100
  60.3513630   6.5619030  70.3978730  63.7592140   6.1473170  71.7857710
  63.2102240   6.5942470  72.4300450  64.3811400   5.6422420  72.3095380
  59.4267260   5.1064090  73.6823010  59.8483680   4.9403960  74.5254400
  59.5518100   4.2964320  73.1878150  61.9394900   4.1301700  70.9300110
  62.4600560   3.4150720  70.5641260  62.5863300   4.7687570  71.2300620
  62.5042930  12.2113310  73.2201850  63.3993720  12.5498280  73.2420610
  62.5360560  11.4892720  72.5926130  56.1439090   7.5840360  71.4488850
  56.5813960   8.1270030  72.1046430  56.6286820   6.7587310  71.4585190
  53.3584890  10.3729390  78.9009110  53.6887900   9.5050450  78.6687750
  53.7875890  10.5787910  79.7314070  57.9546810   8.7038400  76.5611080
  57.6542350   8.5803370  77.4614990  57.8484300   7.8446990  76.1526810
  53.8475100  11.2399980  81.6390740  53.4106090  11.4200780  82.4714890
  54.4152780  11.9974600  81.4972460  70.7238730   8.4834800  71.2637760
  69.8931690   8.5511450  71.7344990  70.9010560   9.3738920  70.9604620
  70.1795190   5.2282280  73.7671960  70.9414100   5.7978930  73.8731650
  70.1949560   4.6609480  74.5380270  53.6799530   3.7520210  77.9979620
  53.0248370   3.4831850  77.3539320  54.5177480   3.6424690  77.5481600
  71.1855160   6.0832380  78.6113890  71.5563990   5.2999700  78.2049860
  71.8257090   6.7721480  78.4331190  70.2314360   5.5216650  70.9244480
  70.5063200   6.4295530  70.7963700  70.0425100   5.4579180  71.8606470
  70.1279700   3.4585640  75.9173910  69.7523300   2.6913570  75.4855200
  69.3982820   3.8408340  76.4048840  69.5820380   1.7683000  82.7400700
  68.6323090   1.7346540  82.8545690  69.7633390   2.6783110  82.5050470
  68.2264970  12.2187560  77.5512480  68.8224040  11.8972130  76.8746900
  68.4843120  11.7459380  78.3425750  68.7777180  12.8682860  81.3810210
  68.3180150  13.6198670  81.0068230  68.1489640  12.1489330  81.3225010
  59.2072900  11.1771100  80.5558340  59.7237920  10.5658460  80.0306600
  59.8570280  11.6799880  81.0469350  61.9468400  12.0679590  81.3827320
  62.2346210  11.8133890  80.5060330  62.4591620  11.5156950  81.9732890
  53.8857800  12.2800490  76.9805690  53.7179840  11.6471170  77.6787580
  53.0192310  12.4859890  76.6299880  55.4920500  10.9733720  74.4255830
  54.9668120  11.3541750  73.7217790  55.4165080  11.5984490  75.1465540
  70.2485820  12.5321260  75.7469770  70.4238010  11.8459000  75.1030690
  69.5507390  13.0568310  75.3546440  58.0913470  12.9216100  73.3005080
  58.8232290  12.6375380  72.7528970  58.3507140  12.6829380  74.1904460
  57.2528260   9.0380830  73.3051410  56.6237140   9.5065930  73.8537240
  57.3676090   8.1930050  73.7397600  64.7077980   3.0886490  59.4552610
  64.6272030   2.1741100  59.1844320  64.2942400   3.5853560  58.7492320
  62.8396020   4.8665510  61.3361880  62.0638120   4.3865950  61.6260450
  63.4908950   4.1871160  61.1618040  56.8561850   5.1785320  62.2137640
  56.0246730   4.9234030  62.6134150  57.4642830   5.2496090  62.9495560
  66.8603450   9.2725700  60.1161010  66.3984980   8.5012940  60.4448180
  67.6729000   9.2991770  60.6213460  56.8363110   9.2125410  62.4095660
  57.1391150   8.3223150  62.2305880  57.5806700   9.7695630  62.1817910
  53.2286810   2.7392860  61.8819730  53.8002920   1.9715060  61.8823370
  53.2288350   3.0381620  60.9726340  63.0866760  11.5583710  59.7365000
  62.4678200  12.0141210  59.1659440  63.9418540  11.7135170  59.3354700
  62.2805010   7.5422700  61.3432040  62.2113290   6.6012640  61.1821170
  63.0424870   7.6324110  61.9154610  63.9530110   6.4422950  57.1296910
  63.3347380   6.9072400  56.5659630  64.4653360   7.1350430  57.5466420
  58.8161870   5.9698820  63.8080510  58.4831250   6.5967740  64.4501580
  58.9928550   6.4960700  63.0282180  58.0280970   7.9379620  65.6229690
  58.6454970   8.6130700  65.3414140  57.1674090   8.3467600  65.5317190
  53.3213310   7.1279480  54.5036540  52.9441290   7.6166580  53.7721440
  53.5786380   7.8004760  55.1343070  68.9458560   9.4019030  63.5384330
  68.2622080  10.0718140  63.5301000  69.4852850   9.5999680  62.7729190
  66.4817300  11.2463160  62.2529510  66.4944460  10.8425450  61.3851770
  65.9292520  12.0210450  62.1490940  67.7762720   7.9679380  57.3419680
  67.6659050   7.0253710  57.4669100  67.7730970   8.3295020  58.2282440
  65.8802740   6.1493000  63.5812120  66.2971530   5.9353110  62.7465580
  66.6042560   6.4065790  64.1520740  63.3183000   3.5944700  56.6982170
  62.3912280   3.5282080  56.9270640  63.4707820   4.5324830  56.5837410
  69.8264840   4.5480220  63.6728360  68.9983470   4.6173310  63.1978490
  70.4215320   5.1334530  63.2044190  67.3480290   5.1565000  57.2017420
  66.7292710   4.8184550  56.5543720  67.3304740   4.5124760  57.9096610
  58.9239640   4.1209440  59.4801900  58.5196640   3.4086690  58.9847800
  59.0102760   3.7762680  60.3689940  59.3921340   7.8077000  61.6441110
  59.0949630   7.2022470  60.9648890  60.3421160   7.8454310  61.5330470
  67.4806950  11.3808870  65.3064210  67.0037510  12.1881060  65.1136820
  66.7968740  10.7287200  65.4590420  58.4839770   7.5458690  68.2948910
  57.5868300   7.7698660  68.5422310  58.5092640   7.6693630  67.3460310
  65.5244990   4.3951810  54.2090170  65.9638270   3.5574240  54.0627990
  66.2373410   5.0281210  54.2954310  57.3110990   4.4172010  66.8706280
  57.1718760   5.2894810  67.2393680  56.4292350   4.0744820  66.7254220
  63.6340370   9.3347880  58.1771410  64.0736280  10.0772210  57.7626800
  63.5727260   9.5774450  59.1010370  59.1091340  10.3593710  69.0791430
  59.0806770  10.7636660  68.2119860  58.9456310   9.4304070  68.9163030
  55.6244270   3.0154420  56.9808550  55.5041870   3.7416510  56.3689820
  55.3145160   2.2457330  56.5036460  71.0606160  11.1420810  70.3755600
  71.5365880  11.6203700  71.0544680  71.6813320  11.0738300  69.6501100
  53.2629640   6.1869560  62.7877190  53.3410060   6.3218330  61.8432910
  53.8771320   5.4785450  62.9805310  54.5077270   7.8869750  59.1983370
  54.1005350   8.0284340  58.3436970  55.3990280   7.6029910  58.9954580
  70.4639410   8.3333660  67.5355610  70.5902470   8.0945540  66.6172790
  70.5060790   7.5018200  68.0077690  64.3256150  12.0361660  66.1050420
  64.8400820  11.9469670  66.9072850  63.4825230  12.3821360  66.3978330
  66.3010550  12.3217000  55.5334420  66.1411690  12.0319940  56.4316250
  66.1357260  11.5457130  54.9979650  58.7798930  12.1015530  57.3106040
  58.6041410  11.1851070  57.0973840  57.9254670  12.4602820  57.5503840
  66.0036680   9.8304560  54.0932420  65.3101840   9.8281850  53.4334700
  66.7459540   9.4063880  53.6626590  65.5686610  11.4567270  58.1680910
  66.0243560  10.6756650  58.4819530  65.9079130  12.1674090  58.7122090
  53.3189160   7.2283730  65.3271650  53.4820200   6.7589090  64.5091020
  53.7841610   6.7207290  65.9920490  64.3039920   2.7155720  62.8158180
  63.5721040   3.2242530  63.1648280  63.9064260   1.8985700  62.5146960
  59.8158960   2.7023140  53.6100730  59.2475860   2.2541390  52.9836640
  60.5247960   3.0615920  53.0765880  54.8928140   6.6035160  67.4867460
  54.5082930   5.9628830  68.0850420  55.2040330   7.3071280  68.0562190
  61.0425280   3.4511700  62.9676080  61.4095410   2.9770270  63.7137420
  60.8530340   4.3253270  63.3084420  58.8324650   2.4920340  65.2860290
  58.5281720   3.3712320  65.5110650  59.7871110   2.5520130  65.3217730
  57.3606440   6.6981330  55.8827140  56.5868700   6.1578950  55.7225860
  58.0901070   6.1787940  55.5444900  68.1194420   5.6946690  61.6753530
  68.8393540   6.1901980  61.2849640  67.9176240   5.0164580  61.0307400
  63.5013220   5.7655750  67.5622530  63.4350530   4.8451420  67.3080120
  62.8718360   5.8631190  68.2767170  57.4043840   6.3661710  59.5205950
  57.9222510   5.5629970  59.4662840  56.9527860   6.3040850  60.3622780
  62.2913340   7.6327990  54.7933250  62.6329040   8.3770220  54.2976570
  61.4626050   7.9459110  55.1558080  54.8888380   3.3323080  66.4331650
  54.5303320   3.9976930  67.0204990  54.5942940   2.5006630  66.8044270
  58.0901500   3.7907320  69.3171200  57.7901640   3.9364500  68.4199020
  58.8612740   3.2312610  69.2244590  63.4329950   8.5876320  67.3126330
  63.4474490   7.6557280  67.0945240  62.7255050   8.6736080  67.9516100
  68.5667020   2.7716140  53.5824940  68.4830740   3.2030360  52.7321380
  69.2861210   3.2314490  54.0151760  69.6441160   5.2283660  66.6594910
  68.9189350   5.8212440  66.4624300  70.1716620   5.2207200  65.8608280
  69.5954270   9.6258400  56.3107070  68.9530430   8.9714020  56.5850790
  69.2084930  10.0313490  55.5347740  65.1740750   6.9543830  60.1578760
  65.5264570   6.3571960  59.4980130  64.2903080   6.6288060  60.3287010
  61.2604030   7.7141520  57.5649170  61.9475160   8.2610730  57.9456760
  60.4736450   8.2582250  57.5998780  53.3996430   3.3314340  53.0566250
  54.2691280   3.6139140  53.3402170  52.9086750   4.1450210  52.9415060
  60.5631240   4.7187550  57.1774530  61.0194020   5.5292800  57.4034720
  60.2119450   4.4010690  58.0093020  62.8663850  10.2293890  64.4066830
  63.5106070  10.4353270  65.0840250  63.2293290   9.4682290  63.9537680
  64.1395930   8.2326240  63.1244280  64.7818160   7.5319400  63.2376450
  64.6645280   9.0124680  62.9441170  67.9851650   8.5174860  52.8483420
  67.7589230   7.8005300  53.4408060  67.5947850   8.2687300  52.0105170
  65.9133550   9.0321140  66.3280340  66.2489790   9.6187830  67.0058260
  64.9933890   8.9013850  66.5578130  53.7667680  12.5441720  53.6227880
  54.1265320  13.1431060  52.9685150  53.6260020  13.0901610  54.3962910
  67.5667900   6.4346800  54.5097580  67.2789600   6.8959490  55.2975460
  68.3620070   5.9744570  54.7781800  53.7509540  10.8096580  68.0970280
  53.8600660   9.8691320  67.9565670  53.0990100  11.0751330  67.4484010
  61.7422130   9.0812470  69.4968400  61.4219000   8.3621710  70.0414090
  61.0680490   9.7567540  69.5704460  59.7836300   9.9272920  54.4401550
  59.7746400  10.6602610  53.8246060  58.8634660   9.6804500  54.5328510
  55.3842940   5.1487810  55.1848310  54.7770890   5.8886710  55.1943610
  55.8592290   5.2387170  54.3586510  62.7695900   9.9901160  53.1026740
  62.8707880   9.7865150  52.1728720  61.8697640   9.7359440  53.3074520
  61.4114010  12.5087480  57.7974410  61.6655510  12.4708870  56.8753780
  60.4626490  12.3820810  57.7902660  67.4166590   3.4279360  59.3732920
  66.4756730   3.4429590  59.5480610  67.7310660   2.6415320  59.8193220
  57.3948230   5.1098960  52.9336880  58.1611500   4.9980320  53.4962310
  57.4722920   4.4136930  52.2813650  56.0894990   2.5424030  53.6169770
  56.1698580   1.5951540  53.7287170  56.9814740   2.8730910  53.7230430
  69.4192170  10.5988210  61.0487180  69.5439590  11.4219380  61.5210990
  70.2857730  10.3878940  60.7011330  56.8909700  12.6919420  60.7204310
  57.6272180  12.1434880  60.9912880  57.2750620  13.5575430  60.5810300
  53.7755180   8.7592990  56.5945820  52.8494960   9.0014130  56.5851230
  54.2411610   9.5867250  56.4730570  55.8967980  11.8765490  69.9089890
  56.6980710  12.1977540  70.3225290  55.3819800  11.5161070  70.6309800
  60.0012010  11.8649730  52.5429880  60.7940620  12.1538560  52.0911670
  59.4816360  11.4341900  51.8642360  64.7332610   7.9845360  69.8565300
  64.1270770   8.0076960  69.1161050  64.4286720   7.2528400  70.3932550
  66.1632980  11.7125650  68.4674710  67.1154730  11.6283670  68.4174950
  66.0161200  12.3767360  69.1408500  69.0542180  11.0919860  53.9666620
  68.7683690  10.6785000  53.1520800  68.8561730  12.0207570  53.8467140
  53.6165790   4.3638950  68.8525940  54.1204810   3.7846230  69.4242170
  52.8773210   4.6479180  69.3902310  60.5189410   7.0853140  52.4072230
  60.4140050   6.4705490  53.1333610  60.3513630   6.5619030  51.6235240
  60.6703730   5.7709940  68.3861460  59.9049400   6.3394940  68.3016130
  60.8519690   5.4786150  67.4929690  63.7592140   6.1473170  53.0114220
  63.2102240   6.5942470  53.6556960  64.3811400   5.6422420  53.5351890
  67.8127080   7.5015270  68.9436480  68.5536550   7.8391030  68.4403940
  67.0499760   7.6707330  68.3906250  55.6488870   2.5068540  69.7476010
  55.6894210   2.2082410  70.6561240  56.5034370   2.9076150  69.5883530
  59.4267260   5.1064090  54.9079520  59.8483680   4.9403960  55.7510910
  59.5518100   4.2964320  54.4134660  61.9394900   4.1301700  52.1556620
  62.4600560   3.4150720  51.7897770  62.5863300   4.7687570  52.4557130
  66.4872740   5.5530100  67.4791690  66.9013760   5.7075180  68.3282110
  65.5523740   5.6785320  67.6417470  66.9594910   2.8926260  69.4830840
  67.5415680   2.1378580  69.3951320  67.1356680   3.4233700  68.7062320
  61.2487970   5.5050580  65.4487620  61.6676080   6.3483310  65.2763860
  60.3296600   5.6422620  65.2194400  63.5851870   3.2366760  66.8325460
  63.7048080   2.6407900  67.5720300  64.4445870   3.2736450  66.4126760
  65.9239770   3.7903950  65.4087970  65.3974990   4.3146570  64.8053110
  66.2671110   4.4231340  66.0397700  59.0995390  11.8103590  66.5645350
  58.5616480  12.5349650  66.2454050  59.3529350  11.3333930  65.7742690
  61.9557600  13.0454800  66.8232000  61.8816300  13.9489940  67.1304370
  61.0536440  12.7266700  66.7954070  62.5042930  12.2113310  54.4458360
  63.3993720  12.5498280  54.4677120  62.5360560  11.4892720  53.8182640
  56.1439090   7.5840360  52.6745360  56.5813960   8.1270030  53.3302940
  56.6286820   6.7587310  52.6841700  53.3584890  10.3729390  60.1265620
  53.6887900   9.5050450  59.8944260  53.7875890  10.5787910  60.9570580
  57.9546810   8.7038400  57.7867590  57.6542350   8.5803370  58.6871500
  57.8484300   7.8446990  57.3783320  53.8475100  11.2399980  62.8647250
  53.4106090  11.4200780  63.6971400  54.4152780  11.9974600  62.7228970
  69.4837280  10.7416980  67.1524560  68.8839270  10.8009540  66.4088480
  69.6131180   9.8021960  67.2821410  70.7238730   8.4834800  52.4894270
  69.8931690   8.5511450  52.9601500  70.9010560   9.3738920  52.1861130
  70.1795190   5.2282280  54.9928470  70.9414100   5.7978930  55.0988160
  70.1949560   4.6609480  55.7636780  53.6799530   3.7520210  59.2236130
  53.0248370   3.4831850  58.5795830  54.5177480   3.6424690  58.7738110
  71.1855160   6.0832380  59.8370400  71.5563990   5.2999700  59.4306370
  71.8257090   6.7721480  59.6587700  68.1688920   7.4668960  65.2500720
  67.3548760   7.8966120  65.5126510  68.5763120   8.0787370  64.6369770
  70.2314360   5.5216650  52.1500990  70.5063200   6.4295530  52.0220210
  70.0425100   5.4579180  53.0862980  70.1279700   3.4585640  57.1430420
  69.7523300   2.6913570  56.7111710  69.3982820   3.8408340  57.6305350
  54.7175460   4.1372780  63.7639470  55.0848500   4.0500180  64.6435490
  54.1486280   3.3739330  63.6646330  69.5179320   2.6057160  66.7769940
  69.2865410   2.3769910  65.8767890  69.7783870   3.5256710  66.7314830
  69.5820380   1.7683000  63.9657210  68.6323090   1.7346540  64.0802200
  69.7633390   2.6783110  63.7306980  68.2264970  12.2187560  58.7768990
  68.8224040  11.8972130  58.1003410  68.4843120  11.7459380  59.5682260
  56.1327540   8.6505470  68.9259620  56.0897170   8.2798380  69.8074080
  56.2638550   9.5883040  69.0661440  59.8333570  10.2065060  64.5269340
  59.5924930  10.4739620  63.6399860  60.7736210  10.3770790  64.5820200
  71.0937730  12.2259440  65.3279980  70.5996010  12.6228310  64.6107110
  70.4851020  11.6008650  65.7217260  55.9715570  11.5967720  66.0457400
  55.3775890  11.4652420  66.7847440  55.9639410  10.7605860  65.5799500
  68.7777180  12.8682860  62.6066720  68.3180150  13.6198670  62.2324740
  68.1489640  12.1489330  62.5481520  55.6027800   8.9626100  64.9965440
  54.8761860   8.3431390  64.9291390  55.6636950   9.3566710  64.1263520
  59.2072900  11.1771100  61.7814850  59.7237920  10.5658460  61.2563110
  59.8570280  11.6799880  62.2725860  61.9468400  12.0679590  62.6083830
  62.2346210  11.8133890  61.7316840  62.4591620  11.5156950  63.1989400
  53.8857800  12.2800490  58.2062200  53.7179840  11.6471170  58.9044090
  53.0192310  12.4859890  57.8556390  55.4920500  10.9733720  55.6512340
  54.9668120  11.3541750  54.9474300  55.4165080  11.5984490  56.3722050
  62.0140760  12.9895690  69.9752030  62.9408070  12.7539960  70.0187990
  61.9991190  13.8167690  69.4938060  70.2485820  12.5321260  56.9726280
  70.4238010  11.8459000  56.3287200  69.5507390  13.0568310  56.5802950
  58.0913470  12.9216100  54.5261590  58.8232290  12.6375380  53.9785480
  58.3507140  12.6829380  55.4160970  57.2528260   9.0380830  54.5307920
  56.6237140   9.5065930  55.0793750  57.3676090   8.1930050  54.9654110
  68.5818320  12.2165550  69.7993070  69.3743640  11.7214780  69.5919030
  68.8751470  12.8955690  70.4068680  64.7077980   3.0886490  40.6809120
  64.6272030   2.1741100  40.4100830  64.2942400   3.5853560  39.9748830
  62.8396020   4.8665510  42.5618390  62.0638120   4.3865950  42.8516960
  63.4908950   4.1871160  42.3874550  56.8561850   5.1785320  43.4394150
  56.0246730   4.9234030  43.8390660  57.4642830   5.2496090  44.1752070
  66.8603450   9.2725700  41.3417520  66.3984980   8.5012940  41.6704690
  67.6729000   9.2991770  41.8469970  56.8363110   9.2125410  43.6352170
  57.1391150   8.3223150  43.4562390  57.5806700   9.7695630  43.4074420
  53.2286810   2.7392860  43.1076240  53.8002920   1.9715060  43.1079880
  53.2288350   3.0381620  42.1982850  63.0866760  11.5583710  40.9621510
  62.4678200  12.0141210  40.3915950  63.9418540  11.7135170  40.5611210
  62.2805010   7.5422700  42.5688550  62.2113290   6.6012640  42.4077680
  63.0424870   7.6324110  43.1411120  63.9530110   6.4422950  38.3553420
  63.3347380   6.9072400  37.7916140  64.4653360   7.1350430  38.7722930
  58.8161870   5.9698820  45.0337020  58.4831250   6.5967740  45.6758090
  58.9928550   6.4960700  44.2538690  58.0280970   7.9379620  46.8486200
  58.6454970   8.6130700  46.5670650  57.1674090   8.3467600  46.7573700
  53.3213310   7.1279480  35.7293050  52.9441290   7.6166580  34.9977950
  53.5786380   7.8004760  36.3599580  68.9458560   9.4019030  44.7640840
  68.2622080  10.0718140  44.7557510  69.4852850   9.5999680  43.9985700
  66.4817300  11.2463160  43.4786020  66.4944460  10.8425450  42.6108280
  65.9292520  12.0210450  43.3747450  67.7762720   7.9679380  38.5676190
  67.6659050   7.0253710  38.6925610  67.7730970   8.3295020  39.4538950
  65.8802740   6.1493000  44.8068630  66.2971530   5.9353110  43.9722090
  66.6042560   6.4065790  45.3777250  63.3183000   3.5944700  37.9238680
  62.3912280   3.5282080  38.1527150  63.4707820   4.5324830  37.8093920
  69.8264840   4.5480220  44.8984870  68.9983470   4.6173310  44.4235000
  70.4215320   5.1334530  44.4300700  67.3480290   5.1565000  38.4273930
  66.7292710   4.8184550  37.7800230  67.3304740   4.5124760  39.1353120
  58.9239640   4.1209440  40.7058410  58.5196640   3.4086690  40.2104310
  59.0102760   3.7762680  41.5946450  59.3921340   7.8077000  42.8697620
  59.0949630   7.2022470  42.1905400  60.3421160   7.8454310  42.7586980
  67.4806950  11.3808870  46.5320720  67.0037510  12.1881060  46.3393330
  66.7968740  10.7287200  46.6846930  58.4839770   7.5458690  49.5205420
  57.5868300   7.7698660  49.7678820  58.5092640   7.6693630  48.5716820
  65.5244990   4.3951810  35.4346680  65.9638270   3.5574240  35.2884500
  66.2373410   5.0281210  35.5210820  57.3110990   4.4172010  48.0962790
  57.1718760   5.2894810  48.4650190  56.4292350   4.0744820  47.9510730
  63.6340370   9.3347880  39.4027920  64.0736280  10.0772210  38.9883310
  63.5727260   9.5774450  40.3266880  59.1091340  10.3593710  50.3047940
  59.0806770  10.7636660  49.4376370  58.9456310   9.4304070  50.1419540
  55.6244270   3.0154420  38.2065060  55.5041870   3.7416510  37.5946330
  55.3145160   2.2457330  37.7292970  71.0606160  11.1420810  51.6012110
  71.5365880  11.6203700  52.2801190  71.6813320  11.0738300  50.8757610
  53.2629640   6.1869560  44.0133700  53.3410060   6.3218330  43.0689420
  53.8771320   5.4785450  44.2061820  54.5077270   7.8869750  40.4239880
  54.1005350   8.0284340  39.5693480  55.3990280   7.6029910  40.2211090
  70.4639410   8.3333660  48.7612120  70.5902470   8.0945540  47.8429300
  70.5060790   7.5018200  49.2334200  64.3256150  12.0361660  47.3306930
  64.8400820  11.9469670  48.1329360  63.4825230  12.3821360  47.6234840
  66.3010550  12.3217000  36.7590930  66.1411690  12.0319940  37.6572760
  66.1357260  11.5457130  36.2236160  58.7798930  12.1015530  38.5362550
  58.6041410  11.1851070  38.3230350  57.9254670  12.4602820  38.7760350
  66.0036680   9.8304560  35.3188930  65.3101840   9.8281850  34.6591210
  66.7459540   9.4063880  34.8883100  65.5686610  11.4567270  39.3937420
  66.0243560  10.6756650  39.7076040  65.9079130  12.1674090  39.9378600
  53.3189160   7.2283730  46.5528160  53.4820200   6.7589090  45.7347530
  53.7841610   6.7207290  47.2177000  64.3039920   2.7155720  44.0414690
  63.5721040   3.2242530  44.3904790  63.9064260   1.8985700  43.7403470
  59.8158960   2.7023140  34.8357240  59.2475860   2.2541390  34.2093150
  60.5247960   3.0615920  34.3022390  54.8928140   6.6035160  48.7123970
  54.5082930   5.9628830  49.3106930  55.2040330   7.3071280  49.2818700
  61.0425280   3.4511700  44.1932590  61.4095410   2.9770270  44.9393930
  60.8530340   4.3253270  44.5340930  58.8324650   2.4920340  46.5116800
  58.5281720   3.3712320  46.7367160  59.7871110   2.5520130  46.5474240
  57.3606440   6.6981330  37.1083650  56.5868700   6.1578950  36.9482370
  58.0901070   6.1787940  36.7701410  68.1194420   5.6946690  42.9010040
  68.8393540   6.1901980  42.5106150  67.9176240   5.0164580  42.2563910
  63.5013220   5.7655750  48.7879040  63.4350530   4.8451420  48.5336630
  62.8718360   5.8631190  49.5023680  57.4043840   6.3661710  40.7462460
  57.9222510   5.5629970  40.6919350  56.9527860   6.3040850  41.5879290
  62.2913340   7.6327990  36.0189760  62.6329040   8.3770220  35.5233080
  61.4626050   7.9459110  36.3814590  54.8888380   3.3323080  47.6588160
  54.5303320   3.9976930  48.2461500  54.5942940   2.5006630  48.0300780
  58.0901500   3.7907320  50.5427710  57.7901640   3.9364500  49.6455530
  58.8612740   3.2312610  50.4501100  63.4329950   8.5876320  48.5382840
  63.4474490   7.6557280  48.3201750  62.7255050   8.6736080  49.1772610
  68.5667020   2.7716140  34.8081450  68.4830740   3.2030360  33.9577890
  69.2861210   3.2314490  35.2408270  69.6441160   5.2283660  47.8851420
  68.9189350   5.8212440  47.6880810  70.1716620   5.2207200  47.0864790
  69.5954270   9.6258400  37.5363580  68.9530430   8.9714020  37.8107300
  69.2084930  10.0313490  36.7604250  65.1740750   6.9543830  41.3835270
  65.5264570   6.3571960  40.7236640  64.2903080   6.6288060  41.5543520
  61.2604030   7.7141520  38.7905680  61.9475160   8.2610730  39.1713270
  60.4736450   8.2582250  38.8255290  53.3996430   3.3314340  34.2822760
  54.2691280   3.6139140  34.5658680  52.9086750   4.1450210  34.1671570
  60.5631240   4.7187550  38.4031040  61.0194020   5.5292800  38.6291230
  60.2119450   4.4010690  39.2349530  62.8663850  10.2293890  45.6323340
  63.5106070  10.4353270  46.3096760  63.2293290   9.4682290  45.1794190
  64.1395930   8.2326240  44.3500790  64.7818160   7.5319400  44.4632960
  64.6645280   9.0124680  44.1697680  67.9851650   8.5174860  34.0739930
  67.7589230   7.8005300  34.6664570  67.5947850   8.2687300  33.2361680
  65.9133550   9.0321140  47.5536850  66.2489790   9.6187830  48.2314770
  64.9933890   8.9013850  47.7834640  53.7667680  12.5441720  34.8484390
  54.1265320  13.1431060  34.1941660  53.6260020  13.0901610  35.6219420
  67.5667900   6.4346800  35.7354090  67.2789600   6.8959490  36.5231970
  68.3620070   5.9744570  36.0038310  53.7509540  10.8096580  49.3226790
  53.8600660   9.8691320  49.1822180  53.0990100  11.0751330  48.6740520
  61.7422130   9.0812470  50.7224910  61.4219000   8.3621710  51.2670600
  61.0680490   9.7567540  50.7960970  59.7836300   9.9272920  35.6658060
  59.7746400  10.6602610  35.0502570  58.8634660   9.6804500  35.7585020
  55.3842940   5.1487810  36.4104820  54.7770890   5.8886710  36.4200120
  55.8592290   5.2387170  35.5843020  62.7695900   9.9901160  34.3283250
  62.8707880   9.7865150  33.3985230  61.8697640   9.7359440  34.5331030
  61.4114010  12.5087480  39.0230920  61.6655510  12.4708870  38.1010290
  60.4626490  12.3820810  39.0159170  67.4166590   3.4279360  40.5989430
  66.4756730   3.4429590  40.7737120  67.7310660   2.6415320  41.0449730
  57.3948230   5.1098960  34.1593390  58.1611500   4.9980320  34.7218820
  57.4722920   4.4136930  33.5070160  56.0894990   2.5424030  34.8426280
  56.1698580   1.5951540  34.9543680  56.9814740   2.8730910  34.9486940
  69.4192170  10.5988210  42.2743690  69.5439590  11.4219380  42.7467500
  70.2857730  10.3878940  41.9267840  56.8909700  12.6919420  41.9460820
  57.6272180  12.1434880  42.2169390  57.2750620  13.5575430  41.8066810
  53.7755180   8.7592990  37.8202330  52.8494960   9.0014130  37.8107740
  54.2411610   9.5867250  37.6987080  55.8967980  11.8765490  51.1346400
  56.6980710  12.1977540  51.5481800  55.3819800  11.5161070  51.8566310
  60.0012010  11.8649730  33.7686390  60.7940620  12.1538560  33.3168180
  59.4816360  11.4341900  33.0898870  64.7332610   7.9845360  51.0821810
  64.1270770   8.0076960  50.3417560  64.4286720   7.2528400  51.6189060
  66.1632980  11.7125650  49.6931220  67.1154730  11.6283670  49.6431460
  66.0161200  12.3767360  50.3665010  69.0542180  11.0919860  35.1923130
  68.7683690  10.6785000  34.3777310  68.8561730  12.0207570  35.0723650
  53.6165790   4.3638950  50.0782450  54.1204810   3.7846230  50.6498680
  52.8773210   4.6479180  50.6158820  60.5189410   7.0853140  33.6328740
  60.4140050   6.4705490  34.3590120  60.3513630   6.5619030  32.8491750
  60.6703730   5.7709940  49.6117970  59.9049400   6.3394940  49.5272640
  60.8519690   5.4786150  48.7186200  63.7592140   6.1473170  34.2370730
  63.2102240   6.5942470  34.8813470  64.3811400   5.6422420  34.7608400
  67.8127080   7.5015270  50.1692990  68.5536550   7.8391030  49.6660450
  67.0499760   7.6707330  49.6162760  55.6488870   2.5068540  50.9732520
  55.6894210   2.2082410  51.8817750  56.5034370   2.9076150  50.8140040
  59.4267260   5.1064090  36.1336030  59.8483680   4.9403960  36.9767420
  59.5518100   4.2964320  35.6391170  61.9394900   4.1301700  33.3813130
  62.4600560   3.4150720  33.0154280  62.5863300   4.7687570  33.6813640
  66.4872740   5.5530100  48.7048200  66.9013760   5.7075180  49.5538620
  65.5523740   5.6785320  48.8673980  66.9594910   2.8926260  50.7087350
  67.5415680   2.1378580  50.6207830  67.1356680   3.4233700  49.9318830
  61.2487970   5.5050580  46.6744130  61.6676080   6.3483310  46.5020370
  60.3296600   5.6422620  46.4450910  63.5851870   3.2366760  48.0581970
  63.7048080   2.6407900  48.7976810  64.4445870   3.2736450  47.6383270
  65.9239770   3.7903950  46.6344480  65.3974990   4.3146570  46.0309620
  66.2671110   4.4231340  47.2654210  59.0995390  11.8103590  47.7901860
  58.5616480  12.5349650  47.4710560  59.3529350  11.3333930  46.9999200
  61.9557600  13.0454800  48.0488510  61.8816300  13.9489940  48.3560880
  61.0536440  12.7266700  48.0210580  62.5042930  12.2113310  35.6714870
  63.3993720  12.5498280  35.6933630  62.5360560  11.4892720  35.0439150
  56.1439090   7.5840360  33.9001870  56.5813960   8.1270030  34.5559450
  56.6286820   6.7587310  33.9098210  53.3584890  10.3729390  41.3522130
  53.6887900   9.5050450  41.1200770  53.7875890  10.5787910  42.1827090
  57.9546810   8.7038400  39.0124100  57.6542350   8.5803370  39.9128010
  57.8484300   7.8446990  38.6039830  53.8475100  11.2399980  44.0903760
  53.4106090  11.4200780  44.9227910  54.4152780  11.9974600  43.9485480
  69.4837280  10.7416980  48.3781070  68.8839270  10.8009540  47.6344990
  69.6131180   9.8021960  48.5077920  70.7238730   8.4834800  33.7150780
  69.8931690   8.5511450  34.1858010  70.9010560   9.3738920  33.4117640
  70.1795190   5.2282280  36.2184980  70.9414100   5.7978930  36.3244670
  70.1949560   4.6609480  36.9893290  53.6799530   3.7520210  40.4492640
  53.0248370   3.4831850  39.8052340  54.5177480   3.6424690  39.9994620
  71.1855160   6.0832380  41.0626910  71.5563990   5.2999700  40.6562880
  71.8257090   6.7721480  40.8844210  68.1688920   7.4668960  46.4757230
  67.3548760   7.8966120  46.7383020  68.5763120   8.0787370  45.8626280
  70.2314360   5.5216650  33.3757500  70.5063200   6.4295530  33.2476720
  70.0425100   5.4579180  34.3119490  70.1279700   3.4585640  38.3686930
  69.7523300   2.6913570  37.9368220  69.3982820   3.8408340  38.8561860
  54.7175460   4.1372780  44.9895980  55.0848500   4.0500180  45.8692000
  54.1486280   3.3739330  44.8902840  69.5179320   2.6057160  48.0026450
  69.2865410   2.3769910  47.1024400  69.7783870   3.5256710  47.9571340
  69.5820380   1.7683000  45.1913720  68.6323090   1.7346540  45.3058710
  69.7633390   2.6783110  44.9563490  68.2264970  12.2187560  40.0025500
  68.8224040  11.8972130  39.3259920  68.4843120  11.7459380  40.7938770
  56.1327540   8.6505470  50.1516130  56.0897170   8.2798380  51.0330590
  56.2638550   9.5883040  50.2917950  59.8333570  10.2065060  45.7525850
  59.5924930  10.4739620  44.8656370  60.7736210  10.3770790  45.8076710
  71.0937730  12.2259440  46.5536490  70.5996010  12.6228310  45.8363620
  70.4851020  11.6008650  46.9473770  55.9715570  11.5967720  47.2713910
  55.3775890  11.4652420  48.0103950  55.9639410  10.7605860  46.8056010
  68.7777180  12.8682860  43.8323230  68.3180150  13.6198670  43.4581250
  68.1489640  12.1489330  43.7738030  55.6027800   8.9626100  46.2221950
  54.8761860   8.3431390  46.1547900  55.6636950   9.3566710  45.3520030
  59.2072900  11.1771100  43.0071360  59.7237920  10.5658460  42.4819620
  59.8570280  11.6799880  43.4982370  61.9468400  12.0679590  43.8340340
  62.2346210  11.8133890  42.9573350  62.4591620  11.5156950  44.4245910
  53.8857800  12.2800490  39.4318710  53.7179840  11.6471170  40.1300600
  53.0192310  12.4859890  39.0812900  55.4920500  10.9733720  36.8768850
  54.9668120  11.3541750  36.1730810  55.4165080  11.5984490  37.5978560
  62.0140760  12.9895690  51.2008540  62.9408070  12.7539960  51.2444500
  61.9991190  13.8167690  50.7194570  70.2485820  12.5321260  38.1982790
  70.4238010  11.8459000  37.5543710  69.5507390  13.0568310  37.8059460
  58.0913470  12.9216100  35.7518100  58.8232290  12.6375380  35.2041990
  58.3507140  12.6829380  36.6417480  57.2528260   9.0380830  35.7564430
  56.6237140   9.5065930  36.3050260  57.3676090   8.1930050  36.1910620
  68.5818320  12.2165550  51.0249580  69.3743640  11.7214780  50.8175540
  68.8751470  12.8955690  51.6325190  64.7077980   3.0886490  21.9065630
  64.6272030   2.1741100  21.6357340  64.2942400   3.5853560  21.2005340
  62.8396020   4.8665510  23.7874900  62.0638120   4.3865950  24.0773470
  63.4908950   4.1871160  23.6131060  56.8561850   5.1785320  24.6650660
  56.0246730   4.9234030  25.0647170  57.4642830   5.2496090  25.4008580
  66.8603450   9.2725700  22.5674030  66.3984980   8.5012940  22.8961200
  67.6729000   9.2991770  23.0726480  56.8363110   9.2125410  24.8608680
  57.1391150   8.3223150  24.6818900  57.5806700   9.7695630  24.6330930
  53.2286810   2.7392860  24.3332750  53.8002920   1.9715060  24.3336390
  53.2288350   3.0381620  23.4239360  63.0866760  11.5583710  22.1878020
  62.4678200  12.0141210  21.6172460  63.9418540  11.7135170  21.7867720
  62.2805010   7.5422700  23.7945060  62.2113290   6.6012640  23.6334190
  63.0424870   7.6324110  24.3667630  63.9530110   6.4422950  19.5809930
  63.3347380   6.9072400  19.0172650  64.4653360   7.1350430  19.9979440
  58.8161870   5.9698820  26.2593530  58.4831250   6.5967740  26.9014600
  58.9928550   6.4960700  25.4795200  58.0280970   7.9379620  28.0742710
  58.6454970   8.6130700  27.7927160  57.1674090   8.3467600  27.9830210
  53.3213310   7.1279480  16.9549560  52.9441290   7.6166580  16.2234460
  53.5786380   7.8004760  17.5856090  68.9458560   9.4019030  25.9897350
  68.2622080  10.0718140  25.9814020  69.4852850   9.5999680  25.2242210
  66.4817300  11.2463160  24.7042530  66.4944460  10.8425450  23.8364790
  65.9292520  12.0210450  24.6003960  67.7762720   7.9679380  19.7932700
  67.6659050   7.0253710  19.9182120  67.7730970   8.3295020  20.6795460
  65.8802740   6.1493000  26.0325140  66.2971530   5.9353110  25.1978600
  66.6042560   6.4065790  26.6033760  63.3183000   3.5944700  19.1495190
  62.3912280   3.5282080  19.3783660  63.4707820   4.5324830  19.0350430
  69.8264840   4.5480220  26.1241380  68.9983470   4.6173310  25.6491510
  70.4215320   5.1334530  25.6557210  67.3480290   5.1565000  19.6530440
  66.7292710   4.8184550  19.0056740  67.3304740   4.5124760  20.3609630
  58.9239640   4.1209440  21.9314920  58.5196640   3.4086690  21.4360820
  59.0102760   3.7762680  22.8202960  59.3921340   7.8077000  24.0954130
  59.0949630   7.2022470  23.4161910  60.3421160   7.8454310  23.9843490
  67.4806950  11.3808870  27.7577230  67.0037510  12.1881060  27.5649840
  66.7968740  10.7287200  27.9103440  58.4839770   7.5458690  30.7461930
  57.5868300   7.7698660  30.9935330  58.5092640   7.6693630  29.7973330
  65.5244990   4.3951810  16.6603190  65.9638270   3.5574240  16.5141010
  66.2373410   5.0281210  16.7467330  57.3110990   4.4172010  29.3219300
  57.1718760   5.2894810  29.6906700  56.4292350   4.0744820  29.1767240
  63.6340370   9.3347880  20.6284430  64.0736280  10.0772210  20.2139820
  63.5727260   9.5774450  21.5523390  59.1091340  10.3593710  31.5304450
  59.0806770  10.7636660  30.6632880  58.9456310   9.4304070  31.3676050
  55.6244270   3.0154420  19.4321570  55.5041870   3.7416510  18.8202840
  55.3145160   2.2457330  18.9549480  71.0606160  11.1420810  32.8268620
  71.5365880  11.6203700  33.5057700  71.6813320  11.0738300  32.1014120
  53.2629640   6.1869560  25.2390210  53.3410060   6.3218330  24.2945930
  53.8771320   5.4785450  25.4318330  54.5077270   7.8869750  21.6496390
  54.1005350   8.0284340  20.7949990  55.3990280   7.6029910  21.4467600
  70.4639410   8.3333660  29.9868630  70.5902470   8.0945540  29.0685810
  70.5060790   7.5018200  30.4590710  64.3256150  12.0361660  28.5563440
  64.8400820  11.9469670  29.3585870  63.4825230  12.3821360  28.8491350
  66.3010550  12.3217000  17.9847440  66.1411690  12.0319940  18.8829270
  66.1357260  11.5457130  17.4492670  58.7798930  12.1015530  19.7619060
  58.6041410  11.1851070  19.5486860  57.9254670  12.4602820  20.0016860
  66.0036680   9.8304560  16.5445440  65.3101840   9.8281850  15.8847720
  66.7459540   9.4063880  16.1139610  65.5686610  11.4567270  20.6193930
  66.0243560  10.6756650  20.9332550  65.9079130  12.1674090  21.1635110
  53.3189160   7.2283730  27.7784670  53.4820200   6.7589090  26.9604040
  53.7841610   6.7207290  28.4433510  64.3039920   2.7155720  25.2671200
  63.5721040   3.2242530  25.6161300  63.9064260   1.8985700  24.9659980
  59.8158960   2.7023140  16.0613750  59.2475860   2.2541390  15.4349660
  60.5247960   3.0615920  15.5278900  54.8928140   6.6035160  29.9380480
  54.5082930   5.9628830  30.5363440  55.2040330   7.3071280  30.5075210
  61.0425280   3.4511700  25.4189100  61.4095410   2.9770270  26.1650440
  60.8530340   4.3253270  25.7597440  58.8324650   2.4920340  27.7373310
  58.5281720   3.3712320  27.9623670  59.7871110   2.5520130  27.7730750
  57.3606440   6.6981330  18.3340160  56.5868700   6.1578950  18.1738880
  58.0901070   6.1787940  17.9957920  68.1194420   5.6946690  24.1266550
  68.8393540   6.1901980  23.7362660  67.9176240   5.0164580  23.4820420
  63.5013220   5.7655750  30.0135550  63.4350530   4.8451420  29.7593140
  62.8718360   5.8631190  30.7280190  57.4043840   6.3661710  21.9718970
  57.9222510   5.5629970  21.9175860  56.9527860   6.3040850  22.8135800
  62.2913340   7.6327990  17.2446270  62.6329040   8.3770220  16.7489590
  61.4626050   7.9459110  17.6071100  54.8888380   3.3323080  28.8844670
  54.5303320   3.9976930  29.4718010  54.5942940   2.5006630  29.2557290
  58.0901500   3.7907320  31.7684220  57.7901640   3.9364500  30.8712040
  58.8612740   3.2312610  31.6757610  63.4329950   8.5876320  29.7639350
  63.4474490   7.6557280  29.5458260  62.7255050   8.6736080  30.4029120
  68.5667020   2.7716140  16.0337960  68.4830740   3.2030360  15.1834400
  69.2861210   3.2314490  16.4664780  69.6441160   5.2283660  29.1107930
  68.9189350   5.8212440  28.9137320  70.1716620   5.2207200  28.3121300
  69.5954270   9.6258400  18.7620090  68.9530430   8.9714020  19.0363810
  69.2084930  10.0313490  17.9860760  65.1740750   6.9543830  22.6091780
  65.5264570   6.3571960  21.9493150  64.2903080   6.6288060  22.7800030
  61.2604030   7.7141520  20.0162190  61.9475160   8.2610730  20.3969780
  60.4736450   8.2582250  20.0511800  53.3996430   3.3314340  15.5079270
  54.2691280   3.6139140  15.7915190  52.9086750   4.1450210  15.3928080
  60.5631240   4.7187550  19.6287550  61.0194020   5.5292800  19.8547740
  60.2119450   4.4010690  20.4606040  62.8663850  10.2293890  26.8579850
  63.5106070  10.4353270  27.5353270  63.2293290   9.4682290  26.4050700
  64.1395930   8.2326240  25.5757300  64.7818160   7.5319400  25.6889470
  64.6645280   9.0124680  25.3954190  67.9851650   8.5174860  15.2996440
  67.7589230   7.8005300  15.8921080  67.5947850   8.2687300  14.4618190
  65.9133550   9.0321140  28.7793360  66.2489790   9.6187830  29.4571280
  64.9933890   8.9013850  29.0091150  53.7667680  12.5441720  16.0740900
  54.1265320  13.1431060  15.4198170  53.6260020  13.0901610  16.8475930
  67.5667900   6.4346800  16.9610600  67.2789600   6.8959490  17.7488480
  68.3620070   5.9744570  17.2294820  53.7509540  10.8096580  30.5483300
  53.8600660   9.8691320  30.4078690  53.0990100  11.0751330  29.8997030
  61.7422130   9.0812470  31.9481420  61.4219000   8.3621710  32.4927110
  61.0680490   9.7567540  32.0217480  59.7836300   9.9272920  16.8914570
  59.7746400  10.6602610  16.2759080  58.8634660   9.6804500  16.9841530
  55.3842940   5.1487810  17.6361330  54.7770890   5.8886710  17.6456630
  55.8592290   5.2387170  16.8099530  62.7695900   9.9901160  15.5539760
  62.8707880   9.7865150  14.6241740  61.8697640   9.7359440  15.7587540
  61.4114010  12.5087480  20.2487430  61.6655510  12.4708870  19.3266800
  60.4626490  12.3820810  20.2415680  67.4166590   3.4279360  21.8245940
  66.4756730   3.4429590  21.9993630  67.7310660   2.6415320  22.2706240
  57.3948230   5.1098960  15.3849900  58.1611500   4.9980320  15.9475330
  57.4722920   4.4136930  14.7326670  56.0894990   2.5424030  16.0682790
  56.1698580   1.5951540  16.1800190  56.9814740   2.8730910  16.1743450
  69.4192170  10.5988210  23.5000200  69.5439590  11.4219380  23.9724010
  70.2857730  10.3878940  23.1524350  56.8909700  12.6919420  23.1717330
  57.6272180  12.1434880  23.4425900  57.2750620  13.5575430  23.0323320
  53.7755180   8.7592990  19.0458840  52.8494960   9.0014130  19.0364250
  54.2411610   9.5867250  18.9243590  55.8967980  11.8765490  32.3602910
  56.6980710  12.1977540  32.7738310  55.3819800  11.5161070  33.0822820
  60.0012010  11.8649730  14.9942900  60.7940620  12.1538560  14.5424690
  59.4816360  11.4341900  14.3155380  64.7332610   7.9845360  32.3078320
  64.1270770   8.0076960  31.5674070  64.4286720   7.2528400  32.8445570
  66.1632980  11.7125650  30.9187730  67.1154730  11.6283670  30.8687970
  66.0161200  12.3767360  31.5921520  69.0542180  11.0919860  16.4179640
  68.7683690  10.6785000  15.6033820  68.8561730  12.0207570  16.2980160
  53.6165790   4.3638950  31.3038960  54.1204810   3.7846230  31.8755190
  52.8773210   4.6479180  31.8415330  60.5189410   7.0853140  14.8585250
  60.4140050   6.4705490  15.5846630  60.3513630   6.5619030  14.0748260
  60.6703730   5.7709940  30.8374480  59.9049400   6.3394940  30.7529150
  60.8519690   5.4786150  29.9442710  63.7592140   6.1473170  15.4627240
  63.2102240   6.5942470  16.1069980  64.3811400   5.6422420  15.9864910
  67.8127080   7.5015270  31.3949500  68.5536550   7.8391030  30.8916960
  67.0499760   7.6707330  30.8419270  55.6488870   2.5068540  32.1989030
  55.6894210   2.2082410  33.1074260  56.5034370   2.9076150  32.0396550
  59.4267260   5.1064090  17.3592540  59.8483680   4.9403960  18.2023930
  59.5518100   4.2964320  16.8647680  61.9394900   4.1301700  14.6069640
  62.4600560   3.4150720  14.2410790  62.5863300   4.7687570  14.9070150
  66.4872740   5.5530100  29.9304710  66.9013760   5.7075180  30.7795130
  65.5523740   5.6785320  30.0930490  66.9594910   2.8926260  31.9343860
  67.5415680   2.1378580  31.8464340  67.1356680   3.4233700  31.1575340
  61.2487970   5.5050580  27.9000640  61.6676080   6.3483310  27.7276880
  60.3296600   5.6422620  27.6707420  63.5851870   3.2366760  29.2838480
  63.7048080   2.6407900  30.0233320  64.4445870   3.2736450  28.8639780
  65.9239770   3.7903950  27.8600990  65.3974990   4.3146570  27.2566130
  66.2671110   4.4231340  28.4910720  59.0995390  11.8103590  29.0158370
  58.5616480  12.5349650  28.6967070  59.3529350  11.3333930  28.2255710
  61.9557600  13.0454800  29.2745020  61.8816300  13.9489940  29.5817390
  61.0536440  12.7266700  29.2467090  62.5042930  12.2113310  16.8971380
  63.3993720  12.5498280  16.9190140  62.5360560  11.4892720  16.2695660
  56.1439090   7.5840360  15.1258380  56.5813960   8.1270030  15.7815960
  56.6286820   6.7587310  15.1354720  53.3584890  10.3729390  22.5778640
  53.6887900   9.5050450  22.3457280  53.7875890  10.5787910  23.4083600
  57.9546810   8.7038400  20.2380610  57.6542350   8.5803370  21.1384520
  57.8484300   7.8446990  19.8296340  53.8475100  11.2399980  25.3160270
  53.4106090  11.4200780  26.1484420  54.4152780  11.9974600  25.1741990
  69.4837280  10.7416980  29.6037580  68.8839270  10.8009540  28.8601500
  69.6131180   9.8021960  29.7334430  70.7238730   8.4834800  14.9407290
  69.8931690   8.5511450  15.4114520  70.9010560   9.3738920  14.6374150
  70.1795190   5.2282280  17.4441490  70.9414100   5.7978930  17.5501180
  70.1949560   4.6609480  18.2149800  53.6799530   3.7520210  21.6749150
  53.0248370   3.4831850  21.0308850  54.5177480   3.6424690  21.2251130
  71.1855160   6.0832380  22.2883420  71.5563990   5.2999700  21.8819390
  71.8257090   6.7721480  22.1100720  68.1688920   7.4668960  27.7013740
  67.3548760   7.8966120  27.9639530  68.5763120   8.0787370  27.0882790
  70.2314360   5.5216650  14.6014010  70.5063200   6.4295530  14.4733230
  70.0425100   5.4579180  15.5376000  70.1279700   3.4585640  19.5943440
  69.7523300   2.6913570  19.1624730  69.3982820   3.8408340  20.0818370
  54.7175460   4.1372780  26.2152490  55.0848500   4.0500180  27.0948510
  54.1486280   3.3739330  26.1159350  69.5179320   2.6057160  29.2282960
  69.2865410   2.3769910  28.3280910  69.7783870   3.5256710  29.1827850
  69.5820380   1.7683000  26.4170230  68.6323090   1.7346540  26.5315220
  69.7633390   2.6783110  26.1820000  68.2264970  12.2187560  21.2282010
  68.8224040  11.8972130  20.5516430  68.4843120  11.7459380  22.0195280
  56.1327540   8.6505470  31.3772640  56.0897170   8.2798380  32.2587100
  56.2638550   9.5883040  31.5174460  59.8333570  10.2065060  26.9782360
  59.5924930  10.4739620  26.0912880  60.7736210  10.3770790  27.0333220
  71.0937730  12.2259440  27.7793000  70.5996010  12.6228310  27.0620130
  70.4851020  11.6008650  28.1730280  55.9715570  11.5967720  28.4970420
  55.3775890  11.4652420  29.2360460  55.9639410  10.7605860  28.0312520
  68.7777180  12.8682860  25.0579740  68.3180150  13.6198670  24.6837760
  68.1489640  12.1489330  24.9994540  55.6027800   8.9626100  27.4478460
  54.8761860   8.3431390  27.3804410  55.6636950   9.3566710  26.5776540
  59.2072900  11.1771100  24.2327870  59.7237920  10.5658460  23.7076130
  59.8570280  11.6799880  24.7238880  61.9468400  12.0679590  25.0596850
  62.2346210  11.8133890  24.1829860  62.4591620  11.5156950  25.6502420
  53.8857800  12.2800490  20.6575220  53.7179840  11.6471170  21.3557110
  53.0192310  12.4859890  20.3069410  55.4920500  10.9733720  18.1025360
  54.9668120  11.3541750  17.3987320  55.4165080  11.5984490  18.8235070
  62.0140760  12.9895690  32.4265050  62.9408070  12.7539960  32.4701010
  61.9991190  13.8167690  31.9451080  70.2485820  12.5321260  19.4239300
  70.4238010  11.8459000  18.7800220  69.5507390  13.0568310  19.0315970
  58.0913470  12.9216100  16.9774610  58.8232290  12.6375380  16.4298500
  58.3507140  12.6829380  17.8673990  57.2528260   9.0380830  16.9820940
  56.6237140   9.5065930  17.5306770  57.3676090   8.1930050  17.4167130
  68.5818320  12.2165550  32.2506090  69.3743640  11.7214780  32.0432050
  68.8751470  12.8955690  32.8581700  64.7077980   3.0886490   3.1322140
  64.6272030   2.1741100   2.8613850  64.2942400   3.5853560   2.4261850
  62.8396020   4.8665510   5.0131410  62.0638120   4.3865950   5.3029980
  63.4908950   4.1871160   4.8387570  56.8561850   5.1785320   5.8907170
  56.0246730   4.9234030   6.2903680  57.4642830   5.2496090   6.6265090
  66.8603450   9.2725700   3.7930540  66.3984980   8.5012940   4.1217710
  67.6729000   9.2991770   4.2982990  56.8363110   9.2125410   6.0865190
  57.1391150   8.3223150   5.9075410  57.5806700   9.7695630   5.8587440
  53.2286810   2.7392860   5.5589260  53.8002920   1.9715060   5.5592900
  53.2288350   3.0381620   4.6495870  63.0866760  11.5583710   3.4134530
  62.4678200  12.0141210   2.8428970  63.9418540  11.7135170   3.0124230
  62.2805010   7.5422700   5.0201570  62.2113290   6.6012640   4.8590700
  63.0424870   7.6324110   5.5924140  58.8161870   5.9698820   7.4850040
  58.4831250   6.5967740   8.1271110  58.9928550   6.4960700   6.7051710
  58.0280970   7.9379620   9.2999220  58.6454970   8.6130700   9.0183670
  57.1674090   8.3467600   9.2086720  68.9458560   9.4019030   7.2153860
  68.2622080  10.0718140   7.2070530  69.4852850   9.5999680   6.4498720
  66.4817300  11.2463160   5.9299040  66.4944460  10.8425450   5.0621300
  65.9292520  12.0210450   5.8260470  65.8802740   6.1493000   7.2581650
  66.2971530   5.9353110   6.4235110  66.6042560   6.4065790   7.8290270
  69.8264840   4.5480220   7.3497890  68.9983470   4.6173310   6.8748020
  70.4215320   5.1334530   6.8813720  58.9239640   4.1209440   3.1571430
  58.5196640   3.4086690   2.6617330  59.0102760   3.7762680   4.0459470
  59.3921340   7.8077000   5.3210640  59.0949630   7.2022470   4.6418420
  60.3421160   7.8454310   5.2100000  67.4806950  11.3808870   8.9833740
  67.0037510  12.1881060   8.7906350  66.7968740  10.7287200   9.1359950
  58.4839770   7.5458690  11.9718440  57.5868300   7.7698660  12.2191840
  58.5092640   7.6693630  11.0229840  57.3110990   4.4172010  10.5475810
  57.1718760   5.2894810  10.9163210  56.4292350   4.0744820  10.4023750
  63.6340370   9.3347880   1.8540940  64.0736280  10.0772210   1.4396330
  63.5727260   9.5774450   2.7779900  59.1091340  10.3593710  12.7560960
  59.0806770  10.7636660  11.8889390  58.9456310   9.4304070  12.5932560
  71.0606160  11.1420810  14.0525130  71.5365880  11.6203700  14.7314210
  71.6813320  11.0738300  13.3270630  53.2629640   6.1869560   6.4646720
  53.3410060   6.3218330   5.5202440  53.8771320   5.4785450   6.6574840
  54.5077270   7.8869750   2.8752900  54.1005350   8.0284340   2.0206500
  55.3990280   7.6029910   2.6724110  70.4639410   8.3333660  11.2125140
  70.5902470   8.0945540  10.2942320  70.5060790   7.5018200  11.6847220
  64.3256150  12.0361660   9.7819950  64.8400820  11.9469670  10.5842380
  63.4825230  12.3821360  10.0747860  65.5686610  11.4567270   1.8450440
  66.0243560  10.6756650   2.1589060  65.9079130  12.1674090   2.3891620
  53.3189160   7.2283730   9.0041180  53.4820200   6.7589090   8.1860550
  53.7841610   6.7207290   9.6690020  64.3039920   2.7155720   6.4927710
  63.5721040   3.2242530   6.8417810  63.9064260   1.8985700   6.1916490
  54.8928140   6.6035160  11.1636990  54.5082930   5.9628830  11.7619950
  55.2040330   7.3071280  11.7331720  61.0425280   3.4511700   6.6445610
  61.4095410   2.9770270   7.3906950  60.8530340   4.3253270   6.9853950
  58.8324650   2.4920340   8.9629820  58.5281720   3.3712320   9.1880180
  59.7871110   2.5520130   8.9987260  68.1194420   5.6946690   5.3523060
  68.8393540   6.1901980   4.9619170  67.9176240   5.0164580   4.7076930
  63.5013220   5.7655750  11.2392060  63.4350530   4.8451420  10.9849650
  62.8718360   5.8631190  11.9536700  57.4043840   6.3661710   3.1975480
  57.9222510   5.5629970   3.1432370  56.9527860   6.3040850   4.0392310
  54.8888380   3.3323080  10.1101180  54.5303320   3.9976930  10.6974520
  54.5942940   2.5006630  10.4813800  58.0901500   3.7907320  12.9940730
  57.7901640   3.9364500  12.0968550  58.8612740   3.2312610  12.9014120
  63.4329950   8.5876320  10.9895860  63.4474490   7.6557280  10.7714770
  62.7255050   8.6736080  11.6285630  69.6441160   5.2283660  10.3364440
  68.9189350   5.8212440  10.1393830  70.1716620   5.2207200   9.5377810
  65.1740750   6.9543830   3.8348290  65.5264570   6.3571960   3.1749660
  64.2903080   6.6288060   4.0056540  62.8663850  10.2293890   8.0836360
  63.5106070  10.4353270   8.7609780  63.2293290   9.4682290   7.6307210
  64.1395930   8.2326240   6.8013810  64.7818160   7.5319400   6.9145980
  64.6645280   9.0124680   6.6210700  65.9133550   9.0321140  10.0049870
  66.2489790   9.6187830  10.6827790  64.9933890   8.9013850  10.2347660
  53.7509540  10.8096580  11.7739810  53.8600660   9.8691320  11.6335200
  53.0990100  11.0751330  11.1253540  61.7422130   9.0812470  13.1737930
  61.4219000   8.3621710  13.7183620  61.0680490   9.7567540  13.2473990
  67.4166590   3.4279360   3.0502450  66.4756730   3.4429590   3.2250140
  67.7310660   2.6415320   3.4962750  69.4192170  10.5988210   4.7256710
  69.5439590  11.4219380   5.1980520  70.2857730  10.3878940   4.3780860
  56.8909700  12.6919420   4.3973840  57.6272180  12.1434880   4.6682410
  57.2750620  13.5575430   4.2579830  55.8967980  11.8765490  13.5859420
  56.6980710  12.1977540  13.9994820  55.3819800  11.5161070  14.3079330
  64.7332610   7.9845360  13.5334830  64.1270770   8.0076960  12.7930580
  64.4286720   7.2528400  14.0702080  66.1632980  11.7125650  12.1444240
  67.1154730  11.6283670  12.0944480  66.0161200  12.3767360  12.8178030
  53.6165790   4.3638950  12.5295470  54.1204810   3.7846230  13.1011700
  52.8773210   4.6479180  13.0671840  60.6703730   5.7709940  12.0630990
  59.9049400   6.3394940  11.9785660  60.8519690   5.4786150  11.1699220
  67.8127080   7.5015270  12.6206010  68.5536550   7.8391030  12.1173470
  67.0499760   7.6707330  12.0675780  55.6488870   2.5068540  13.4245540
  55.6894210   2.2082410  14.3330770  56.5034370   2.9076150  13.2653060
  66.4872740   5.5530100  11.1561220  66.9013760   5.7075180  12.0051640
  65.5523740   5.6785320  11.3187000  66.9594910   2.8926260  13.1600370
  67.5415680   2.1378580  13.0720850  67.1356680   3.4233700  12.3831850
  61.2487970   5.5050580   9.1257150  61.6676080   6.3483310   8.9533390
  60.3296600   5.6422620   8.8963930  63.5851870   3.2366760  10.5094990
  63.7048080   2.6407900  11.2489830  64.4445870   3.2736450  10.0896290
  65.9239770   3.7903950   9.0857500  65.3974990   4.3146570   8.4822640
  66.2671110   4.4231340   9.7167230  59.0995390  11.8103590  10.2414880
  58.5616480  12.5349650   9.9223580  59.3529350  11.3333930   9.4512220
  61.9557600  13.0454800  10.5001530  61.8816300  13.9489940  10.8073900
  61.0536440  12.7266700  10.4723600  53.3584890  10.3729390   3.8035150
  53.6887900   9.5050450   3.5713790  53.7875890  10.5787910   4.6340110
  53.8475100  11.2399980   6.5416780  53.4106090  11.4200780   7.3740930
  54.4152780  11.9974600   6.3998500  69.4837280  10.7416980  10.8294090
  68.8839270  10.8009540  10.0858010  69.6131180   9.8021960  10.9590940
  53.6799530   3.7520210   2.9005660  53.0248370   3.4831850   2.2565360
  54.5177480   3.6424690   2.4507640  71.1855160   6.0832380   3.5139930
  71.5563990   5.2999700   3.1075900  71.8257090   6.7721480   3.3357230
  68.1688920   7.4668960   8.9270250  67.3548760   7.8966120   9.1896040
  68.5763120   8.0787370   8.3139300  54.7175460   4.1372780   7.4409000
  55.0848500   4.0500180   8.3205020  54.1486280   3.3739330   7.3415860
  69.5179320   2.6057160  10.4539470  69.2865410   2.3769910   9.5537420
  69.7783870   3.5256710  10.4084360  69.5820380   1.7683000   7.6426740
  68.6323090   1.7346540   7.7571730  69.7633390   2.6783110   7.4076510
  68.2264970  12.2187560   2.4538520  68.8224040  11.8972130   1.7772940
  68.4843120  11.7459380   3.2451790  56.1327540   8.6505470  12.6029150
  56.0897170   8.2798380  13.4843610  56.2638550   9.5883040  12.7430970
  59.8333570  10.2065060   8.2038870  59.5924930  10.4739620   7.3169390
  60.7736210  10.3770790   8.2589730  71.0937730  12.2259440   9.0049510
  70.5996010  12.6228310   8.2876640  70.4851020  11.6008650   9.3986790
  55.9715570  11.5967720   9.7226930  55.3775890  11.4652420  10.4616970
  55.9639410  10.7605860   9.2569030  68.7777180  12.8682860   6.2836250
  68.3180150  13.6198670   5.9094270  68.1489640  12.1489330   6.2251050
  55.6027800   8.9626100   8.6734970  54.8761860   8.3431390   8.6060920
  55.6636950   9.3566710   7.8033050  59.2072900  11.1771100   5.4584380
  59.7237920  10.5658460   4.9332640  59.8570280  11.6799880   5.9495390
  61.9468400  12.0679590   6.2853360  62.2346210  11.8133890   5.4086370
  62.4591620  11.5156950   6.8758930  53.8857800  12.2800490   1.8831730
  53.7179840  11.6471170   2.5813620  53.0192310  12.4859890   1.5325920
  62.0140760  12.9895690  13.6521560  62.9408070  12.7539960  13.6957520
  61.9991190  13.8167690  13.1707590  68.5818320  12.2165550  13.4762600
  69.3743640  11.7214780  13.2688560  68.8751470  12.8955690  14.0838210
  45.9334490  78.1860450  78.2296100  45.8528540  77.2715060  77.9587810
  45.5198910  78.6827520  77.5235810  44.0652530  79.9639470  80.1105370
  43.2894630  79.4839910  80.4003940  44.7165460  79.2845120  79.9361530
  38.0818360  80.2759280  80.9881130  37.2503240  80.0207990  81.3877640
  38.6899340  80.3470050  81.7239050  36.4910310  75.2361170  74.7723520
  35.6027010  75.5777140  74.6703400  36.7751500  75.0361490  73.8804350
  34.4543320  77.8366820  80.6563220  35.0259430  77.0689020  80.6566860
  34.4544860  78.1355580  79.7469830  35.6968190  73.2451180  82.4432150
  35.5171030  72.3476930  82.7234910  35.2948270  73.7923050  83.1179100
  44.5366690  75.4467040  80.3444460  44.9131510  74.5738920  80.2318130
  44.4386200  75.7825740  79.4534900  38.6671700  73.8192670  75.8061900
  38.7738450  74.7196400  76.1130660  37.7564060  73.7710640  75.5156550
  48.3190810  72.9417480  77.2772800  49.1400430  72.4514050  77.3198280
  48.3524890  73.5315140  78.0304640  36.3154860  75.7411680  81.0514490
  36.9964970  76.0050050  81.6701890  36.0002910  74.9012550  81.3852500
  40.5079430  76.7879040  80.1387080  41.0157650  77.2860010  80.7792100
  41.0392670  76.0114240  79.9626440  48.5552290  74.8817860  80.0500340
  47.8507860  75.1702750  80.6303450  48.9164450  75.6917970  79.6899900
  38.4730860  73.1387560  82.4120950  38.8147670  73.9829610  82.1174820
  37.5346670  73.2871300  82.5286290  51.6239210  74.3272650  80.4409550
  50.6764120  74.3611630  80.5724980  51.9489200  75.1411600  80.8258910
  42.1558750  70.6269830  78.7365540  42.4633730  70.0716720  78.0201040
  41.2259450  70.7614290  78.5538530  44.5439510  78.6918660  75.4725660
  43.6168790  78.6256040  75.7014130  44.6964330  79.6298790  75.3580900
  44.5308590  74.9635660  72.4692820  43.5912260  75.1249620  72.5545280
  44.8491850  75.6821340  71.9228810  51.0521350  79.6454180  82.4471850
  50.2239980  79.7147270  81.9721980  51.6471830  80.2308490  81.9787680
  48.5736800  80.2538960  75.9760910  47.9549220  79.9158510  75.3287210
  48.5561250  79.6098720  76.6840100  40.1496150  79.2183400  78.2545390
  39.7453150  78.5060650  77.7591290  40.2359270  78.8736640  79.1433430
  38.8624770  75.9926610  82.0344430  39.4139360  76.1021950  81.2597680
  39.3768280  76.3664210  82.7499660  46.7501500  79.4925770  72.9833660
  47.1894780  78.6548200  72.8371480  47.4629920  80.1255170  73.0697800
  50.3318640  70.7468580  71.2974700  50.0191300  70.8395410  72.1973770
  51.0931110  71.3249610  71.2472130  36.8500780  78.1128380  75.7552040
  36.7298380  78.8390470  75.1433310  36.5401670  77.3431290  75.2779950
  39.3164440  71.4563450  79.1375710  38.8732590  72.2372990  78.8060230
  39.8749430  71.7793340  79.8446650  42.4323260  71.0774150  74.0181540
  41.8077440  71.0734020  74.7434850  42.3453380  70.2105110  73.6217510
  41.3540340  72.0010780  80.9965310  41.6512670  72.9073610  80.9157330
  41.9025900  71.5129560  80.3824880  39.1078660  76.5797020  76.8656960
  38.8819580  76.3634190  77.7703580  38.3271190  77.0125480  76.5202930
  46.3376420  76.5860390  75.4647610  45.7385310  77.3096190  75.2811230
  46.8856030  76.5237170  74.6824060  44.9441290  75.2223930  77.4950890
  45.3370860  75.5396130  76.6819580  45.3058140  74.3435810  77.6095410
  33.9805460  71.8124730  79.7181090  33.6918510  72.3827590  80.4306070
  34.7251220  71.3329180  80.0812320  34.1675690  75.7544850  70.9283810
  34.0850360  76.6975610  71.0698800  33.8158750  75.6119760  70.0496160
  45.5296430  77.8129680  81.5901670  44.7977550  78.3216490  81.9391770
  45.1320770  76.9959660  81.2890450  41.9673820  74.4883880  79.9954160
  41.9709880  74.0473830  79.1458700  42.8624940  74.8101210  80.1025980
  37.8176200  74.3710370  78.9548370  37.4776250  74.8485600  79.7115420
  37.0553520  73.9175490  78.5949470  42.0293970  75.4895960  72.9860920
  42.1506790  75.4482440  73.9346740  41.6442480  76.3520110  72.8307650
  45.9922340  73.2663360  81.0024610  46.0095080  73.7172010  81.8466460
  45.7437920  72.3669000  81.2158050  41.0415470  77.7997100  72.3844220
  40.4732370  77.3515350  71.7580130  41.7504470  78.1589880  71.8509370
  42.2681790  78.5485660  81.7419570  42.6351920  78.0744230  82.4880910
  42.0786850  79.4227230  82.0827910  35.1322280  73.2929350  77.8713040
  34.8469200  72.9285020  78.7091660  35.0701140  72.5609810  77.2576180
  49.3450930  80.7920650  80.4497020  50.0650050  81.2875940  80.0593130
  49.1432750  80.1138540  79.8050890  44.8060870  72.1858610  74.5926410
  43.9925480  71.6871780  74.5171720  44.6122820  73.0256860  74.1762760
  47.5209260  76.5578260  72.8888570  48.4088880  76.8695490  72.7139910
  47.4914350  75.6850510  72.4969150  49.7923530  77.8690100  72.3568430
  49.7087250  78.3004320  71.5064870  50.5117720  78.3288450  72.7895250
  34.6252940  78.4288300  71.8309740  35.4947790  78.7113100  72.1145660
  34.1343260  79.2424170  71.7158550  41.7887750  79.8161510  75.9518020
  42.2450530  80.6266760  76.1778210  41.4375960  79.4984650  76.7836510
  37.6899530  70.1599160  76.4240540  37.5614160  70.1517060  77.3725460
  36.8661550  70.4982250  76.0731550  36.6099450  80.2461770  73.9591800
  36.0027400  80.9860670  73.9687100  37.0848800  80.3361130  73.1330000
  49.5494270  73.3669530  74.4436250  48.9207430  73.4715200  73.7294480
  49.0546190  73.5866310  75.2330130  41.5178300  75.6455480  75.8594130
  40.8094450  76.1141820  76.3007740  41.8022780  74.9877490  76.4939320
  45.5493730  72.3706140  77.2989920  45.4261510  72.3892270  76.3499430
  46.4978290  72.4185080  77.4188320  39.7213320  73.9540560  73.2344840
  40.5703850  74.3910710  73.1685030  39.3544590  74.2660820  74.0616900
  48.6423100  78.5253320  78.1476410  47.7013240  78.5403550  78.3224100
  48.9567170  77.7389280  78.5936710  38.6204740  80.2072920  71.7080370
  39.3868010  80.0954280  72.2705800  38.6979430  79.5110890  71.0557140
  37.3151500  77.6397990  72.3913260  37.3955090  76.6925500  72.5030660
  38.2071250  77.9704870  72.4973920  40.6523770  80.2038050  73.6823010
  41.0740190  80.0377920  74.5254400  40.7774610  79.3938280  73.1878150
  43.1651410  79.2275660  70.9300110  43.6857070  78.5124680  70.5641260
  43.8119810  79.8661530  71.2300620  39.5482670  76.2771280  70.6281170
  39.3471730  75.4138640  70.9894510  39.3774720  76.1904640  69.6902770
  47.0270980  71.0879510  73.1568050  47.3073270  70.2447410  73.5127470
  46.2536710  71.3202620  73.6706800  38.3465470  73.3771900  70.6159050
  38.6491370  73.3839330  69.7078200  39.0860060  73.0269760  71.1126710
  41.5650400  72.3206520  71.6015250  41.2172400  71.6430510  71.0217700
  41.7663170  71.8596030  72.4158640  51.4051700  80.3256240  73.7671960
  52.1670610  80.8952890  73.8731650  51.4206070  79.7583440  74.5380270
  34.9056040  78.8494170  77.9979620  34.2504880  78.5805810  77.3539320
  35.7433990  78.7398650  77.5481600  47.8546480  73.6435460  72.2198110
  48.2731360  73.4566440  71.3794770  47.5482540  72.7914510  72.5301040
  51.3536210  78.5559600  75.9173910  50.9779810  77.7887530  75.4855200
  50.6239330  78.9382300  76.4048840  34.1194120  76.0593100  73.9404950
  33.2158200  76.3223300  73.7656610  34.6034740  76.3304270  73.1604910
  50.6287170  76.7817090  79.2181150  51.1524650  76.2879740  78.5871320
  51.2146590  76.9167450  79.9628720  50.8076890  76.8656960  82.7400700
  49.8579600  76.8320500  82.8545690  50.9889900  77.7757070  82.5050470
  36.6621330  75.1158640  71.8499330  37.3713030  74.6941860  71.3646610
  35.9461270  75.1833870  71.2182680  36.3095490  71.1697970  70.8901980
  37.0323620  71.7106910  71.2083200  36.5820010  70.8961390  70.0143520
  50.1187140  76.0390440  75.1573560  50.6146260  75.8061310  75.9422440
  49.9203210  75.2002280  74.7411200  35.9987680  70.4204160  80.7924600
  36.6463870  69.8701540  80.3519760  36.4189520  70.6747310  81.6140410
  51.5474300  74.6751390  77.6911240  51.4373580  74.5207430  78.6293510
  52.3081890  74.1472330  77.4486650  52.4364570  72.5059310  70.9317380
  53.3613880  72.3740490  70.7235670  52.4140360  72.5852130  71.8853830
  52.5103060  73.2769970  73.5574090  51.7154560  73.2115090  74.0867000
  52.7146340  74.2120610  73.5459440  44.3901920  70.9043750  81.9623830
  43.6073710  71.3789250  82.2420590  44.0964850  69.9998580  81.8537010
  48.9422990  71.6066850  80.0072920  49.3831080  71.5511950  79.1594520
  48.6730580  72.5224860  80.0783100  50.8061560  71.2382090  78.0181740
  50.7449960  70.2943310  77.8712760  51.5853590  71.3462180  78.5635200
  35.7342330  71.2091230  74.4837550  36.4921690  71.3220110  73.9101580
  35.2719500  72.0460430  74.4380980  42.2756140  73.3230500  77.4739860
  41.4630650  72.9487390  77.1335740  42.7797780  72.5675580  77.7761050
  46.7781120  69.9872950  78.7122930  47.3810490  70.5593160  79.1871450
  46.0374110  70.5512390  78.4896830  49.9215720  70.3894510  73.9863210
  50.1166350  71.2877960  74.2530640  49.1345590  70.1581590  74.4796160
  38.1067480  71.7355280  73.0239520  38.6360240  70.9485080  72.8947470
  38.7395800  72.4146470  73.2575050  40.3005320  71.4730420  76.0784910
  39.6708060  70.7717730  76.2455040  39.7610460  72.2334550  75.8618070
  45.9334490  78.1860450  59.4552610  45.8528540  77.2715060  59.1844320
  45.5198910  78.6827520  58.7492320  44.0652530  79.9639470  61.3361880
  43.2894630  79.4839910  61.6260450  44.7165460  79.2845120  61.1618040
  38.0818360  80.2759280  62.2137640  37.2503240  80.0207990  62.6134150
  38.6899340  80.3470050  62.9495560  36.4910310  75.2361170  55.9980030
  35.6027010  75.5777140  55.8959910  36.7751500  75.0361490  55.1060860
  34.4543320  77.8366820  61.8819730  35.0259430  77.0689020  61.8823370
  34.4544860  78.1355580  60.9726340  35.6968190  73.2451180  63.6688660
  35.5171030  72.3476930  63.9491420  35.2948270  73.7923050  64.3435610
  44.5366690  75.4467040  61.5700970  44.9131510  74.5738920  61.4574640
  44.4386200  75.7825740  60.6791410  38.6671700  73.8192670  57.0318410
  38.7738450  74.7196400  57.3387170  37.7564060  73.7710640  56.7413060
  48.3190810  72.9417480  58.5029310  49.1400430  72.4514050  58.5454790
  48.3524890  73.5315140  59.2561150  36.3154860  75.7411680  62.2771000
  36.9964970  76.0050050  62.8958400  36.0002910  74.9012550  62.6109010
  40.5079430  76.7879040  61.3643590  41.0157650  77.2860010  62.0048610
  41.0392670  76.0114240  61.1882950  52.6090360  74.9584230  65.0672940
  51.9042530  75.3465940  64.5488050  52.8748280  75.6534520  65.6693870
  38.7915530  71.4277600  65.6307010  38.7933970  71.9449990  64.8252910
  37.9619840  70.9507780  65.6076940  48.5552290  74.8817860  61.2756850
  47.8507860  75.1702750  61.8559960  48.9164450  75.6917970  60.9156410
  38.4730860  73.1387560  63.6377460  38.8147670  73.9829610  63.3431330
  37.5346670  73.2871300  63.7542800  51.6239210  74.3272650  61.6666060
  50.6764120  74.3611630  61.7981490  51.9489200  75.1411600  62.0515420
  42.1558750  70.6269830  59.9622050  42.4633730  70.0716720  59.2457550
  41.2259450  70.7614290  59.7795040  44.5439510  78.6918660  56.6982170
  43.6168790  78.6256040  56.9270640  44.6964330  79.6298790  56.5837410
  44.5308590  74.9635660  53.6949330  43.5912260  75.1249620  53.7801790
  44.8491850  75.6821340  53.1485320  51.0521350  79.6454180  63.6728360
  50.2239980  79.7147270  63.1978490  51.6471830  80.2308490  63.2044190
  48.5736800  80.2538960  57.2017420  47.9549220  79.9158510  56.5543720
  48.5561250  79.6098720  57.9096610  48.0163360  76.4323500  64.6183230
  47.6034540  77.2577210  64.8723220  47.2839310  75.8468540  64.4259590
  40.1496150  79.2183400  59.4801900  39.7453150  78.5060650  58.9847800
  40.2359270  78.8736640  60.3689940  38.8624770  75.9926610  63.2600940
  39.4139360  76.1021950  62.4854190  39.3768280  76.3664210  63.9756170
  46.7501500  79.4925770  54.2090170  47.1894780  78.6548200  54.0627990
  47.4629920  80.1255170  54.2954310  38.5367500  79.5145970  66.8706280
  38.3975270  80.3868770  67.2393680  37.6548860  79.1718780  66.7254220
  50.3318640  70.7468580  52.5231210  50.0191300  70.8395410  53.4230280
  51.0931110  71.3249610  52.4728640  36.8500780  78.1128380  56.9808550
  36.7298380  78.8390470  56.3689820  36.5401670  77.3431290  56.5036460
  51.5419930  75.4840080  68.5005350  50.9264200  75.9919750  67.9720810
  51.2216350  74.5838410  68.4431290  39.3164440  71.4563450  60.3632220
  38.8732590  72.2372990  60.0316740  39.8749430  71.7793340  61.0703160
  43.6034250  74.3231970  65.9667540  43.1413620  74.5314990  66.7787480
  43.2012360  73.5091320  65.6638210  48.6038760  75.5440920  67.0964200
  47.7532350  75.2446670  67.4173270  48.4440550  75.7882930  66.1848020
  45.6988470  77.0442670  69.1962990  46.0241880  76.2106420  68.8565220
  46.4868800  77.5671190  69.3441320  42.4323260  71.0774150  55.2438050
  41.8077440  71.0734020  55.9691360  42.3453380  70.2105110  54.8474020
  41.3540340  72.0010780  62.2221820  41.6512670  72.9073610  62.1413840
  41.9025900  71.5129560  61.6081390  39.1078660  76.5797020  58.0913470
  38.8819580  76.3634190  58.9960090  38.3271190  77.0125480  57.7459440
  46.3376420  76.5860390  56.6904120  45.7385310  77.3096190  56.5067740
  46.8856030  76.5237170  55.9080570  41.5477870  77.4782600  68.7573740
  41.4521470  76.5377330  68.6074140  42.3909850  77.6997670  68.3621810
  44.9441290  75.2223930  58.7207400  45.3370860  75.5396130  57.9076090
  45.3058140  74.3435810  58.8351920  36.6788410  73.8896270  66.9107520
  36.2851800  74.7371480  67.1180300  35.9906810  73.2522640  67.1016160
  43.2533460  73.9731240  69.9804260  42.5631780  73.7803440  70.6150350
  43.9965760  74.2565880  70.5128560  33.9805460  71.8124730  60.9437600
  33.6918510  72.3827590  61.6562580  34.7251220  71.3329180  61.3068830
  34.1675690  75.7544850  52.1540320  34.0850360  76.6975610  52.2955310
  33.8158750  75.6119760  51.2752670  45.5296430  77.8129680  62.8158180
  44.7977550  78.3216490  63.1648280  45.1320770  76.9959660  62.5146960
  41.9673820  74.4883880  61.2210670  41.9709880  74.0473830  60.3715210
  42.8624940  74.8101210  61.3282490  37.8176200  74.3710370  60.1804880
  37.4776250  74.8485600  60.9371930  37.0553520  73.9175490  59.8205980
  42.0293970  75.4895960  54.2117430  42.1506790  75.4482440  55.1603250
  41.6442480  76.3520110  54.0564160  45.9922340  73.2663360  62.2281120
  46.0095080  73.7172010  63.0722970  45.7437920  72.3669000  62.4414560
  41.0415470  77.7997100  53.6100730  40.4732370  77.3515350  52.9836640
  41.7504470  78.1589880  53.0765880  49.4193090  70.6795540  68.0667500
  49.7438860  69.9485200  68.5925480  49.4549600  70.3609180  67.1648490
  42.2681790  78.5485660  62.9676080  42.6351920  78.0744230  63.7137420
  42.0786850  79.4227230  63.3084420  35.1322280  73.2929350  59.0969550
  34.8469200  72.9285020  59.9348170  35.0701140  72.5609810  58.4832690
  40.0581160  77.5894300  65.2860290  39.7538230  78.4686280  65.5110650
  41.0127620  77.6494090  65.3217730  49.3450930  80.7920650  61.6753530
  50.0650050  81.2875940  61.2849640  49.1432750  80.1138540  61.0307400
  44.8060870  72.1858610  55.8182920  43.9925480  71.6871780  55.7428230
  44.6122820  73.0256860  55.4019270  44.7269730  80.8629710  67.5622530
  44.6607040  79.9425380  67.3080120  44.0974870  80.9605150  68.2767170
  47.5209260  76.5578260  54.1145080  48.4088880  76.8695490  53.9396420
  47.4914350  75.6850510  53.7225660  36.1144890  78.4297040  66.4331650
  35.7559830  79.0950890  67.0204990  35.8199450  77.5980590  66.8044270
  39.3158010  78.8881280  69.3171200  39.0158150  79.0338460  68.4199020
  40.0869250  78.3286570  69.2244590  49.7923530  77.8690100  53.5824940
  49.7087250  78.3004320  52.7321380  50.5117720  78.3288450  54.0151760
  50.8697670  80.3257620  66.6594910  50.1445860  80.9186400  66.4624300
  51.3973130  80.3181160  65.8608280  34.6252940  78.4288300  53.0566250
  35.4947790  78.7113100  53.3402170  34.1343260  79.2424170  52.9415060
  41.7887750  79.8161510  57.1774530  42.2450530  80.6266760  57.4034720
  41.4375960  79.4984650  58.0093020  37.6899530  70.1599160  57.6497050
  37.5614160  70.1517060  58.5981970  36.8661550  70.4982250  57.2988060
  34.6893460  71.9190280  67.1103750  33.9751980  72.1187200  67.7156360
  35.1088500  71.1429850  67.4818550  36.6099450  80.2461770  55.1848310
  36.0027400  80.9860670  55.1943610  37.0848800  80.3361130  54.3586510
  46.1832240  74.4112590  64.8605200  46.5513060  73.5907800  65.1884770
  45.3230440  74.4714480  65.2760850  49.5494270  73.3669530  55.6692760
  48.9207430  73.4715200  54.9550990  49.0546190  73.5866310  56.4586640
  41.5178300  75.6455480  57.0850640  40.8094450  76.1141820  57.5264250
  41.8022780  74.9877490  57.7195830  43.1434230  77.0652180  65.0843170
  43.6419480  77.5398000  65.7495020  43.2857180  76.1415700  65.2913200
  45.5493730  72.3706140  58.5246430  45.4261510  72.3892270  57.5755940
  46.4978290  72.4185080  58.6444830  39.7213320  73.9540560  54.4601350
  40.5703850  74.3910710  54.3941540  39.3544590  74.2660820  55.2873410
  50.3501090  73.2820140  65.9271560  49.8474690  74.0225540  66.2665370
  51.1657750  73.6704140  65.6108350  48.6423100  78.5253320  59.3732920
  47.7013240  78.5403550  59.5480610  48.9567170  77.7389280  59.8193220
  38.6204740  80.2072920  52.9336880  39.3868010  80.0954280  53.4962310
  38.6979430  79.5110890  52.2813650  37.3151500  77.6397990  53.6169770
  37.3955090  76.6925500  53.7287170  38.2071250  77.9704870  53.7230430
  34.8422300  79.4612910  68.8525940  35.3461320  78.8820190  69.4242170
  34.1029720  79.7453140  69.3902310  36.8745380  77.6042500  69.7476010
  36.9150720  77.3056370  70.6561240  37.7290880  78.0050110  69.5883530
  40.6523770  80.2038050  54.9079520  41.0740190  80.0377920  55.7510910
  40.7774610  79.3938280  54.4134660  38.8151190  76.1834600  67.7150500
  38.2847650  75.6925550  67.0873840  39.4839260  76.6118800  67.1808430
  43.1651410  79.2275660  52.1556620  43.6857070  78.5124680  51.7897770
  43.8119810  79.8661530  52.4557130  47.7129250  80.6504060  67.4791690
  48.1270270  80.8049140  68.3282110  46.7780250  80.7759280  67.6417470
  48.1851420  77.9900220  69.4830840  48.7672190  77.2352540  69.3951320
  48.3613190  78.5207660  68.7062320  39.3023490  73.1496970  67.7947790
  39.2080360  72.5317720  67.0698660  38.7220880  73.8763260  67.5677700
  42.0684930  71.7070210  64.8275180  41.6202230  71.7294470  63.9820730
  41.4350130  71.3089230  65.4245480  44.8108380  78.3340720  66.8325460
  44.9304590  77.7381860  67.5720300  45.6702380  78.3710410  66.4126760
  47.1496280  78.8877910  65.4087970  46.6231500  79.4120530  64.8053110
  47.4927620  79.5205300  66.0397700  39.5482670  76.2771280  51.8537680
  39.3471730  75.4138640  52.2151020  39.3774720  76.1904640  50.9159280
  41.5777150  74.8762070  68.0901280  42.1676840  74.5677920  68.7779100
  40.7597390  74.4041820  68.2461180  46.3970580  74.4927880  68.3234300
  45.7086100  73.8309420  68.2584290  47.1176600  74.0466150  68.7682760
  47.0270980  71.0879510  54.3824560  47.3073270  70.2447410  54.7383980
  46.2536710  71.3202620  54.8963310  38.3465470  73.3771900  51.8415560
  38.6491370  73.3839330  50.9334710  39.0860060  73.0269760  52.3383220
  41.5650400  72.3206520  52.8271760  41.2172400  71.6430510  52.2474210
  41.7663170  71.8596030  53.6415150  51.4051700  80.3256240  54.9928470
  52.1670610  80.8952890  55.0988160  51.4206070  79.7583440  55.7636780
  34.9056040  78.8494170  59.2236130  34.2504880  78.5805810  58.5795830
  35.7433990  78.7398650  58.7738110  47.8546480  73.6435460  53.4454620
  48.2731360  73.4566440  52.6051280  47.5482540  72.7914510  53.7557550
  51.3536210  78.5559600  57.1430420  50.9779810  77.7887530  56.7111710
  50.6239330  78.9382300  57.6305350  35.9431970  79.2346740  63.7639470
  36.3105010  79.1474140  64.6435490  35.3742790  78.4713290  63.6646330
  50.7435830  77.7031120  66.7769940  50.5121920  77.4743870  65.8767890
  51.0040380  78.6230670  66.7314830  35.4947970  76.1455830  67.6697890
  34.6004020  76.1122590  68.0091600  36.0345520  76.3442620  68.4349140
  49.1823900  72.9287550  69.5549640  50.0594080  72.9370950  69.9383640
  49.1944740  72.1918390  68.9441990  34.1194120  76.0593100  55.1661460
  33.2158200  76.3223300  54.9913120  34.6034740  76.3304270  54.3861420
  50.6287170  76.7817090  60.4437660  51.1524650  76.2879740  59.8127830
  51.2146590  76.9167450  61.1885230  50.8076890  76.8656960  63.9657210
  49.8579600  76.8320500  64.0802200  50.9889900  77.7757070  63.7306980
  36.6621330  75.1158640  53.0755840  37.3713030  74.6941860  52.5903120
  35.9461270  75.1833870  52.4439190  36.3095490  71.1697970  52.1158490
  37.0323620  71.7106910  52.4339710  36.5820010  70.8961390  51.2400030
  50.1187140  76.0390440  56.3830070  50.6146260  75.8061310  57.1678950
  49.9203210  75.2002280  55.9667710  35.9987680  70.4204160  62.0181110
  36.6463870  69.8701540  61.5776270  36.4189520  70.6747310  62.8396920
  51.5474300  74.6751390  58.9167750  51.4373580  74.5207430  59.8550020
  52.3081890  74.1472330  58.6743160  49.8940020  70.6145520  65.3750750
  50.5312240  71.2279660  65.7409940  50.0414910  70.6506180  64.4299980
  52.4364570  72.5059310  52.1573890  53.3613880  72.3740490  51.9492180
  52.4140360  72.5852130  53.1110340  52.5103060  73.2769970  54.7830600
  51.7154560  73.2115090  55.3123510  52.7146340  74.2120610  54.7715950
  35.7519680  70.5759830  64.7606430  35.4034500  71.0323650  65.5264610
  35.4207380  69.6816960  64.8428860  43.2644500  71.7671710  68.2825850
  43.2033390  72.3593540  69.0321260  44.2044880  71.6597670  68.1376110
  45.9019060  71.4241770  67.9218140  46.5159470  71.7421060  67.2599220
  46.4468620  70.9390360  68.5414000  36.4240320  70.1036030  68.0357200
  36.9723310  69.9224080  67.2723310  36.4895630  69.3130140  68.5713510
  46.6427100  69.9873910  64.2487430  45.7686940  70.3209020  64.0460360
  46.5337850  69.5147090  65.0739300  47.5499080  72.1944780  65.6329150
  47.2212440  71.3796540  65.2530880  48.4981380  72.1514590  65.5094840
  44.3901920  70.9043750  63.1880340  43.6073710  71.3789250  63.4677100
  44.0964850  69.9998580  63.0793520  48.9422990  71.6066850  61.2329430
  49.3831080  71.5511950  60.3851030  48.6730580  72.5224860  61.3039610
  50.8061560  71.2382090  59.2438250  50.7449960  70.2943310  59.0969270
  51.5853590  71.3462180  59.7891710  35.7342330  71.2091230  55.7094060
  36.4921690  71.3220110  55.1358090  35.2719500  72.0460430  55.6637490
  42.2756140  73.3230500  58.6996370  41.4630650  72.9487390  58.3592250
  42.7797780  72.5675580  59.0017560  46.7781120  69.9872950  59.9379440
  47.3810490  70.5593160  60.4127960  46.0374110  70.5512390  59.7153340
  49.9215720  70.3894510  55.2119720  50.1166350  71.2877960  55.4787150
  49.1345590  70.1581590  55.7052670  38.1067480  71.7355280  54.2496030
  38.6360240  70.9485080  54.1203980  38.7395800  72.4146470  54.4831560
  40.3005320  71.4730420  57.3041420  39.6708060  70.7717730  57.4711550
  39.7610460  72.2334550  57.0874580  40.4260880  70.7514400  69.7393910
  40.1445150  71.2548000  68.9754730  40.8080580  69.9536150  69.3736040
  47.0276340  70.1667980  70.3174380  46.9141790  70.4862590  71.2125900
  47.8446080  70.5680490  70.0211660  45.9334490  78.1860450  40.6809120
  45.8528540  77.2715060  40.4100830  45.5198910  78.6827520  39.9748830
  44.0652530  79.9639470  42.5618390  43.2894630  79.4839910  42.8516960
  44.7165460  79.2845120  42.3874550  38.0818360  80.2759280  43.4394150
  37.2503240  80.0207990  43.8390660  38.6899340  80.3470050  44.1752070
  36.4910310  75.2361170  37.2236540  35.6027010  75.5777140  37.1216420
  36.7751500  75.0361490  36.3317370  34.4543320  77.8366820  43.1076240
  35.0259430  77.0689020  43.1079880  34.4544860  78.1355580  42.1982850
  35.6968190  73.2451180  44.8945170  35.5171030  72.3476930  45.1747930
  35.2948270  73.7923050  45.5692120  44.5366690  75.4467040  42.7957480
  44.9131510  74.5738920  42.6831150  44.4386200  75.7825740  41.9047920
  38.6671700  73.8192670  38.2574920  38.7738450  74.7196400  38.5643680
  37.7564060  73.7710640  37.9669570  48.3190810  72.9417480  39.7285820
  49.1400430  72.4514050  39.7711300  48.3524890  73.5315140  40.4817660
  36.3154860  75.7411680  43.5027510  36.9964970  76.0050050  44.1214910
  36.0002910  74.9012550  43.8365520  40.5079430  76.7879040  42.5900100
  41.0157650  77.2860010  43.2305120  41.0392670  76.0114240  42.4139460
  52.6090360  74.9584230  46.2929450  51.9042530  75.3465940  45.7744560
  52.8748280  75.6534520  46.8950380  38.7915530  71.4277600  46.8563520
  38.7933970  71.9449990  46.0509420  37.9619840  70.9507780  46.8333450
  48.5552290  74.8817860  42.5013360  47.8507860  75.1702750  43.0816470
  48.9164450  75.6917970  42.1412920  38.4730860  73.1387560  44.8633970
  38.8147670  73.9829610  44.5687840  37.5346670  73.2871300  44.9799310
  51.6239210  74.3272650  42.8922570  50.6764120  74.3611630  43.0238000
  51.9489200  75.1411600  43.2771930  42.1558750  70.6269830  41.1878560
  42.4633730  70.0716720  40.4714060  41.2259450  70.7614290  41.0051550
  44.5439510  78.6918660  37.9238680  43.6168790  78.6256040  38.1527150
  44.6964330  79.6298790  37.8093920  44.5308590  74.9635660  34.9205840
  43.5912260  75.1249620  35.0058300  44.8491850  75.6821340  34.3741830
  51.0521350  79.6454180  44.8984870  50.2239980  79.7147270  44.4235000
  51.6471830  80.2308490  44.4300700  48.5736800  80.2538960  38.4273930
  47.9549220  79.9158510  37.7800230  48.5561250  79.6098720  39.1353120
  48.0163360  76.4323500  45.8439740  47.6034540  77.2577210  46.0979730
  47.2839310  75.8468540  45.6516100  40.1496150  79.2183400  40.7058410
  39.7453150  78.5060650  40.2104310  40.2359270  78.8736640  41.5946450
  38.8624770  75.9926610  44.4857450  39.4139360  76.1021950  43.7110700
  39.3768280  76.3664210  45.2012680  46.7501500  79.4925770  35.4346680
  47.1894780  78.6548200  35.2884500  47.4629920  80.1255170  35.5210820
  38.5367500  79.5145970  48.0962790  38.3975270  80.3868770  48.4650190
  37.6548860  79.1718780  47.9510730  50.3318640  70.7468580  33.7487720
  50.0191300  70.8395410  34.6486790  51.0931110  71.3249610  33.6985150
  36.8500780  78.1128380  38.2065060  36.7298380  78.8390470  37.5946330
  36.5401670  77.3431290  37.7292970  51.5419930  75.4840080  49.7261860
  50.9264200  75.9919750  49.1977320  51.2216350  74.5838410  49.6687800
  39.3164440  71.4563450  41.5888730  38.8732590  72.2372990  41.2573250
  39.8749430  71.7793340  42.2959670  43.6034250  74.3231970  47.1924050
  43.1413620  74.5314990  48.0043990  43.2012360  73.5091320  46.8894720
  48.6038760  75.5440920  48.3220710  47.7532350  75.2446670  48.6429780
  48.4440550  75.7882930  47.4104530  45.6988470  77.0442670  50.4219500
  46.0241880  76.2106420  50.0821730  46.4868800  77.5671190  50.5697830
  42.4323260  71.0774150  36.4694560  41.8077440  71.0734020  37.1947870
  42.3453380  70.2105110  36.0730530  41.3540340  72.0010780  43.4478330
  41.6512670  72.9073610  43.3670350  41.9025900  71.5129560  42.8337900
  39.1078660  76.5797020  39.3169980  38.8819580  76.3634190  40.2216600
  38.3271190  77.0125480  38.9715950  46.3376420  76.5860390  37.9160630
  45.7385310  77.3096190  37.7324250  46.8856030  76.5237170  37.1337080
  41.5477870  77.4782600  49.9830250  41.4521470  76.5377330  49.8330650
  42.3909850  77.6997670  49.5878320  44.9441290  75.2223930  39.9463910
  45.3370860  75.5396130  39.1332600  45.3058140  74.3435810  40.0608430
  36.6788410  73.8896270  48.1364030  36.2851800  74.7371480  48.3436810
  35.9906810  73.2522640  48.3272670  43.2533460  73.9731240  51.2060770
  42.5631780  73.7803440  51.8406860  43.9965760  74.2565880  51.7385070
  33.9805460  71.8124730  42.1694110  33.6918510  72.3827590  42.8819090
  34.7251220  71.3329180  42.5325340  34.1675690  75.7544850  33.3796830
  34.0850360  76.6975610  33.5211820  33.8158750  75.6119760  32.5009180
  45.5296430  77.8129680  44.0414690  44.7977550  78.3216490  44.3904790
  45.1320770  76.9959660  43.7403470  41.9673820  74.4883880  42.4467180
  41.9709880  74.0473830  41.5971720  42.8624940  74.8101210  42.5539000
  37.8176200  74.3710370  41.4061390  37.4776250  74.8485600  42.1628440
  37.0553520  73.9175490  41.0462490  42.0293970  75.4895960  35.4373940
  42.1506790  75.4482440  36.3859760  41.6442480  76.3520110  35.2820670
  45.9922340  73.2663360  43.4537630  46.0095080  73.7172010  44.2979480
  45.7437920  72.3669000  43.6671070  41.0415470  77.7997100  34.8357240
  40.4732370  77.3515350  34.2093150  41.7504470  78.1589880  34.3022390
  49.4193090  70.6795540  49.2924010  49.7438860  69.9485200  49.8181990
  49.4549600  70.3609180  48.3905000  42.2681790  78.5485660  44.1932590
  42.6351920  78.0744230  44.9393930  42.0786850  79.4227230  44.5340930
  35.1322280  73.2929350  40.3226060  34.8469200  72.9285020  41.1604680
  35.0701140  72.5609810  39.7089200  40.0581160  77.5894300  46.5116800
  39.7538230  78.4686280  46.7367160  41.0127620  77.6494090  46.5474240
  49.3450930  80.7920650  42.9010040  50.0650050  81.2875940  42.5106150
  49.1432750  80.1138540  42.2563910  44.8060870  72.1858610  37.0439430
  43.9925480  71.6871780  36.9684740  44.6122820  73.0256860  36.6275780
  44.7269730  80.8629710  48.7879040  44.6607040  79.9425380  48.5336630
  44.0974870  80.9605150  49.5023680  47.5209260  76.5578260  35.3401590
  48.4088880  76.8695490  35.1652930  47.4914350  75.6850510  34.9482170
  36.1144890  78.4297040  47.6588160  35.7559830  79.0950890  48.2461500
  35.8199450  77.5980590  48.0300780  39.3158010  78.8881280  50.5427710
  39.0158150  79.0338460  49.6455530  40.0869250  78.3286570  50.4501100
  49.7923530  77.8690100  34.8081450  49.7087250  78.3004320  33.9577890
  50.5117720  78.3288450  35.2408270  50.8697670  80.3257620  47.8851420
  50.1445860  80.9186400  47.6880810  51.3973130  80.3181160  47.0864790
  34.6252940  78.4288300  34.2822760  35.4947790  78.7113100  34.5658680
  34.1343260  79.2424170  34.1671570  41.7887750  79.8161510  38.4031040
  42.2450530  80.6266760  38.6291230  41.4375960  79.4984650  39.2349530
  37.6899530  70.1599160  38.8753560  37.5614160  70.1517060  39.8238480
  36.8661550  70.4982250  38.5244570  34.6893460  71.9190280  48.3360260
  33.9751980  72.1187200  48.9412870  35.1088500  71.1429850  48.7075060
  36.6099450  80.2461770  36.4104820  36.0027400  80.9860670  36.4200120
  37.0848800  80.3361130  35.5843020  46.1832240  74.4112590  46.0861710
  46.5513060  73.5907800  46.4141280  45.3230440  74.4714480  46.5017360
  49.5494270  73.3669530  36.8949270  48.9207430  73.4715200  36.1807500
  49.0546190  73.5866310  37.6843150  41.5178300  75.6455480  38.3107150
  40.8094450  76.1141820  38.7520760  41.8022780  74.9877490  38.9452340
  43.1434230  77.0652180  46.3099680  43.6419480  77.5398000  46.9751530
  43.2857180  76.1415700  46.5169710  45.5493730  72.3706140  39.7502940
  45.4261510  72.3892270  38.8012450  46.4978290  72.4185080  39.8701340
  39.7213320  73.9540560  35.6857860  40.5703850  74.3910710  35.6198050
  39.3544590  74.2660820  36.5129920  50.3501090  73.2820140  47.1528070
  49.8474690  74.0225540  47.4921880  51.1657750  73.6704140  46.8364860
  48.6423100  78.5253320  40.5989430  47.7013240  78.5403550  40.7737120
  48.9567170  77.7389280  41.0449730  38.6204740  80.2072920  34.1593390
  39.3868010  80.0954280  34.7218820  38.6979430  79.5110890  33.5070160
  37.3151500  77.6397990  34.8426280  37.3955090  76.6925500  34.9543680
  38.2071250  77.9704870  34.9486940  34.8422300  79.4612910  50.0782450
  35.3461320  78.8820190  50.6498680  34.1029720  79.7453140  50.6158820
  36.8745380  77.6042500  50.9732520  36.9150720  77.3056370  51.8817750
  37.7290880  78.0050110  50.8140040  40.6523770  80.2038050  36.1336030
  41.0740190  80.0377920  36.9767420  40.7774610  79.3938280  35.6391170
  38.8151190  76.1834600  48.9407010  38.2847650  75.6925550  48.3130350
  39.4839260  76.6118800  48.4064940  43.1651410  79.2275660  33.3813130
  43.6857070  78.5124680  33.0154280  43.8119810  79.8661530  33.6813640
  47.7129250  80.6504060  48.7048200  48.1270270  80.8049140  49.5538620
  46.7780250  80.7759280  48.8673980  48.1851420  77.9900220  50.7087350
  48.7672190  77.2352540  50.6207830  48.3613190  78.5207660  49.9318830
  39.3023490  73.1496970  49.0204300  39.2080360  72.5317720  48.2955170
  38.7220880  73.8763260  48.7934210  42.0684930  71.7070210  46.0531690
  41.6202230  71.7294470  45.2077240  41.4350130  71.3089230  46.6501990
  44.8108380  78.3340720  48.0581970  44.9304590  77.7381860  48.7976810
  45.6702380  78.3710410  47.6383270  47.1496280  78.8877910  46.6344480
  46.6231500  79.4120530  46.0309620  47.4927620  79.5205300  47.2654210
  39.5482670  76.2771280  33.0794190  39.3471730  75.4138640  33.4407530
  39.3774720  76.1904640  32.1415790  41.5777150  74.8762070  49.3157790
  42.1676840  74.5677920  50.0035610  40.7597390  74.4041820  49.4717690
  46.3970580  74.4927880  49.5490810  45.7086100  73.8309420  49.4840800
  47.1176600  74.0466150  49.9939270  47.0270980  71.0879510  35.6081070
  47.3073270  70.2447410  35.9640490  46.2536710  71.3202620  36.1219820
  38.3465470  73.3771900  33.0672070  38.6491370  73.3839330  32.1591220
  39.0860060  73.0269760  33.5639730  41.5650400  72.3206520  34.0528270
  41.2172400  71.6430510  33.4730720  41.7663170  71.8596030  34.8671660
  51.4051700  80.3256240  36.2184980  52.1670610  80.8952890  36.3244670
  51.4206070  79.7583440  36.9893290  34.9056040  78.8494170  40.4492640
  34.2504880  78.5805810  39.8052340  35.7433990  78.7398650  39.9994620
  47.8546480  73.6435460  34.6711130  48.2731360  73.4566440  33.8307790
  47.5482540  72.7914510  34.9814060  51.3536210  78.5559600  38.3686930
  50.9779810  77.7887530  37.9368220  50.6239330  78.9382300  38.8561860
  35.9431970  79.2346740  44.9895980  36.3105010  79.1474140  45.8692000
  35.3742790  78.4713290  44.8902840  50.7435830  77.7031120  48.0026450
  50.5121920  77.4743870  47.1024400  51.0040380  78.6230670  47.9571340
  35.4947970  76.1455830  48.8954400  34.6004020  76.1122590  49.2348110
  36.0345520  76.3442620  49.6605650  49.1823900  72.9287550  50.7806150
  50.0594080  72.9370950  51.1640150  49.1944740  72.1918390  50.1698500
  34.1194120  76.0593100  36.3917970  33.2158200  76.3223300  36.2169630
  34.6034740  76.3304270  35.6117930  50.6287170  76.7817090  41.6694170
  51.1524650  76.2879740  41.0384340  51.2146590  76.9167450  42.4141740
  50.8076890  76.8656960  45.1913720  49.8579600  76.8320500  45.3058710
  50.9889900  77.7757070  44.9563490  36.6621330  75.1158640  34.3012350
  37.3713030  74.6941860  33.8159630  35.9461270  75.1833870  33.6695700
  36.3095490  71.1697970  33.3415000  37.0323620  71.7106910  33.6596220
  36.5820010  70.8961390  32.4656540  50.1187140  76.0390440  37.6086580
  50.6146260  75.8061310  38.3935460  49.9203210  75.2002280  37.1924220
  35.9987680  70.4204160  43.2437620  36.6463870  69.8701540  42.8032780
  36.4189520  70.6747310  44.0653430  51.5474300  74.6751390  40.1424260
  51.4373580  74.5207430  41.0806530  52.3081890  74.1472330  39.8999670
  49.8940020  70.6145520  46.6007260  50.5312240  71.2279660  46.9666450
  50.0414910  70.6506180  45.6556490  52.4364570  72.5059310  33.3830400
  53.3613880  72.3740490  33.1748690  52.4140360  72.5852130  34.3366850
  52.5103060  73.2769970  36.0087110  51.7154560  73.2115090  36.5380020
  52.7146340  74.2120610  35.9972460  35.7519680  70.5759830  45.9862940
  35.4034500  71.0323650  46.7521120  35.4207380  69.6816960  46.0685370
  43.2644500  71.7671710  49.5082360  43.2033390  72.3593540  50.2577770
  44.2044880  71.6597670  49.3632620  45.9019060  71.4241770  49.1474650
  46.5159470  71.7421060  48.4855730  46.4468620  70.9390360  49.7670510
  36.4240320  70.1036030  49.2613710  36.9723310  69.9224080  48.4979820
  36.4895630  69.3130140  49.7970020  47.5499080  72.1944780  46.8585660
  47.2212440  71.3796540  46.4787390  48.4981380  72.1514590  46.7351350
  44.3901920  70.9043750  44.4136850  43.6073710  71.3789250  44.6933610
  44.0964850  69.9998580  44.3050030  48.9422990  71.6066850  42.4585940
  49.3831080  71.5511950  41.6107540  48.6730580  72.5224860  42.5296120
  50.8061560  71.2382090  40.4694760  50.7449960  70.2943310  40.3225780
  51.5853590  71.3462180  41.0148220  35.7342330  71.2091230  36.9350570
  36.4921690  71.3220110  36.3614600  35.2719500  72.0460430  36.8894000
  42.2756140  73.3230500  39.9252880  41.4630650  72.9487390  39.5848760
  42.7797780  72.5675580  40.2274070  46.7781120  69.9872950  41.1635950
  47.3810490  70.5593160  41.6384470  46.0374110  70.5512390  40.9409850
  49.9215720  70.3894510  36.4376230  50.1166350  71.2877960  36.7043660
  49.1345590  70.1581590  36.9309180  38.1067480  71.7355280  35.4752540
  38.6360240  70.9485080  35.3460490  38.7395800  72.4146470  35.7088070
  40.3005320  71.4730420  38.5297930  39.6708060  70.7717730  38.6968060
  39.7610460  72.2334550  38.3131090  40.4260880  70.7514400  50.9650420
  40.1445150  71.2548000  50.2011240  40.8080580  69.9536150  50.5992550
  47.0276340  70.1667980  51.5430890  46.9141790  70.4862590  52.4382410
  47.8446080  70.5680490  51.2468170  45.9334490  78.1860450  21.9065630
  45.8528540  77.2715060  21.6357340  45.5198910  78.6827520  21.2005340
  44.0652530  79.9639470  23.7874900  43.2894630  79.4839910  24.0773470
  44.7165460  79.2845120  23.6131060  38.0818360  80.2759280  24.6650660
  37.2503240  80.0207990  25.0647170  38.6899340  80.3470050  25.4008580
  36.4910310  75.2361170  18.4493050  35.6027010  75.5777140  18.3472930
  36.7751500  75.0361490  17.5573880  34.4543320  77.8366820  24.3332750
  35.0259430  77.0689020  24.3336390  34.4544860  78.1355580  23.4239360
  35.6968190  73.2451180  26.1201680  35.5171030  72.3476930  26.4004440
  35.2948270  73.7923050  26.7948630  44.5366690  75.4467040  24.0213990
  44.9131510  74.5738920  23.9087660  44.4386200  75.7825740  23.1304430
  38.6671700  73.8192670  19.4831430  38.7738450  74.7196400  19.7900190
  37.7564060  73.7710640  19.1926080  48.3190810  72.9417480  20.9542330
  49.1400430  72.4514050  20.9967810  48.3524890  73.5315140  21.7074170
  36.3154860  75.7411680  24.7284020  36.9964970  76.0050050  25.3471420
  36.0002910  74.9012550  25.0622030  40.5079430  76.7879040  23.8156610
  41.0157650  77.2860010  24.4561630  41.0392670  76.0114240  23.6395970
  52.6090360  74.9584230  27.5185960  51.9042530  75.3465940  27.0001070
  52.8748280  75.6534520  28.1206890  38.7915530  71.4277600  28.0820030
  38.7933970  71.9449990  27.2765930  37.9619840  70.9507780  28.0589960
  48.5552290  74.8817860  23.7269870  47.8507860  75.1702750  24.3072980
  48.9164450  75.6917970  23.3669430  38.4730860  73.1387560  26.0890480
  38.8147670  73.9829610  25.7944350  37.5346670  73.2871300  26.2055820
  51.6239210  74.3272650  24.1179080  50.6764120  74.3611630  24.2494510
  51.9489200  75.1411600  24.5028440  42.1558750  70.6269830  22.4135070
  42.4633730  70.0716720  21.6970570  41.2259450  70.7614290  22.2308060
  44.5439510  78.6918660  19.1495190  43.6168790  78.6256040  19.3783660
  44.6964330  79.6298790  19.0350430  44.5308590  74.9635660  16.1462350
  43.5912260  75.1249620  16.2314810  44.8491850  75.6821340  15.5998340
  51.0521350  79.6454180  26.1241380  50.2239980  79.7147270  25.6491510
  51.6471830  80.2308490  25.6557210  48.5736800  80.2538960  19.6530440
  47.9549220  79.9158510  19.0056740  48.5561250  79.6098720  20.3609630
  48.0163360  76.4323500  27.0696250  47.6034540  77.2577210  27.3236240
  47.2839310  75.8468540  26.8772610  40.1496150  79.2183400  21.9314920
  39.7453150  78.5060650  21.4360820  40.2359270  78.8736640  22.8202960
  38.8624770  75.9926610  25.7113960  39.4139360  76.1021950  24.9367210
  39.3768280  76.3664210  26.4269190  46.7501500  79.4925770  16.6603190
  47.1894780  78.6548200  16.5141010  47.4629920  80.1255170  16.7467330
  38.5367500  79.5145970  29.3219300  38.3975270  80.3868770  29.6906700
  37.6548860  79.1718780  29.1767240  50.3318640  70.7468580  14.9744230
  50.0191300  70.8395410  15.8743300  51.0931110  71.3249610  14.9241660
  36.8500780  78.1128380  19.4321570  36.7298380  78.8390470  18.8202840
  36.5401670  77.3431290  18.9549480  51.5419930  75.4840080  30.9518370
  50.9264200  75.9919750  30.4233830  51.2216350  74.5838410  30.8944310
  39.3164440  71.4563450  22.8145240  38.8732590  72.2372990  22.4829760
  39.8749430  71.7793340  23.5216180  43.6034250  74.3231970  28.4180560
  43.1413620  74.5314990  29.2300500  43.2012360  73.5091320  28.1151230
  48.6038760  75.5440920  29.5477220  47.7532350  75.2446670  29.8686290
  48.4440550  75.7882930  28.6361040  45.6988470  77.0442670  31.6476010
  46.0241880  76.2106420  31.3078240  46.4868800  77.5671190  31.7954340
  42.4323260  71.0774150  17.6951070  41.8077440  71.0734020  18.4204380
  42.3453380  70.2105110  17.2987040  41.3540340  72.0010780  24.6734840
  41.6512670  72.9073610  24.5926860  41.9025900  71.5129560  24.0594410
  39.1078660  76.5797020  20.5426490  38.8819580  76.3634190  21.4473110
  38.3271190  77.0125480  20.1972460  46.3376420  76.5860390  19.1417140
  45.7385310  77.3096190  18.9580760  46.8856030  76.5237170  18.3593590
  41.5477870  77.4782600  31.2086760  41.4521470  76.5377330  31.0587160
  42.3909850  77.6997670  30.8134830  44.9441290  75.2223930  21.1720420
  45.3370860  75.5396130  20.3589110  45.3058140  74.3435810  21.2864940
  36.6788410  73.8896270  29.3620540  36.2851800  74.7371480  29.5693320
  35.9906810  73.2522640  29.5529180  43.2533460  73.9731240  32.4317280
  42.5631780  73.7803440  33.0663370  43.9965760  74.2565880  32.9641580
  33.9805460  71.8124730  23.3950620  33.6918510  72.3827590  24.1075600
  34.7251220  71.3329180  23.7581850  34.1675690  75.7544850  14.6053340
  34.0850360  76.6975610  14.7468330  33.8158750  75.6119760  13.7265690
  45.5296430  77.8129680  25.2671200  44.7977550  78.3216490  25.6161300
  45.1320770  76.9959660  24.9659980  41.9673820  74.4883880  23.6723690
  41.9709880  74.0473830  22.8228230  42.8624940  74.8101210  23.7795510
  37.8176200  74.3710370  22.6317900  37.4776250  74.8485600  23.3884950
  37.0553520  73.9175490  22.2719000  42.0293970  75.4895960  16.6630450
  42.1506790  75.4482440  17.6116270  41.6442480  76.3520110  16.5077180
  45.9922340  73.2663360  24.6794140  46.0095080  73.7172010  25.5235990
  45.7437920  72.3669000  24.8927580  41.0415470  77.7997100  16.0613750
  40.4732370  77.3515350  15.4349660  41.7504470  78.1589880  15.5278900
  49.4193090  70.6795540  30.5180520  49.7438860  69.9485200  31.0438500
  49.4549600  70.3609180  29.6161510  42.2681790  78.5485660  25.4189100
  42.6351920  78.0744230  26.1650440  42.0786850  79.4227230  25.7597440
  35.1322280  73.2929350  21.5482570  34.8469200  72.9285020  22.3861190
  35.0701140  72.5609810  20.9345710  40.0581160  77.5894300  27.7373310
  39.7538230  78.4686280  27.9623670  41.0127620  77.6494090  27.7730750
  49.3450930  80.7920650  24.1266550  50.0650050  81.2875940  23.7362660
  49.1432750  80.1138540  23.4820420  44.8060870  72.1858610  18.2695940
  43.9925480  71.6871780  18.1941250  44.6122820  73.0256860  17.8532290
  44.7269730  80.8629710  30.0135550  44.6607040  79.9425380  29.7593140
  44.0974870  80.9605150  30.7280190  47.5209260  76.5578260  16.5658100
  48.4088880  76.8695490  16.3909440  47.4914350  75.6850510  16.1738680
  36.1144890  78.4297040  28.8844670  35.7559830  79.0950890  29.4718010
  35.8199450  77.5980590  29.2557290  39.3158010  78.8881280  31.7684220
  39.0158150  79.0338460  30.8712040  40.0869250  78.3286570  31.6757610
  49.7923530  77.8690100  16.0337960  49.7087250  78.3004320  15.1834400
  50.5117720  78.3288450  16.4664780  50.8697670  80.3257620  29.1107930
  50.1445860  80.9186400  28.9137320  51.3973130  80.3181160  28.3121300
  34.6252940  78.4288300  15.5079270  35.4947790  78.7113100  15.7915190
  34.1343260  79.2424170  15.3928080  41.7887750  79.8161510  19.6287550
  42.2450530  80.6266760  19.8547740  41.4375960  79.4984650  20.4606040
  37.6899530  70.1599160  20.1010070  37.5614160  70.1517060  21.0494990
  36.8661550  70.4982250  19.7501080  34.6893460  71.9190280  29.5616770
  33.9751980  72.1187200  30.1669380  35.1088500  71.1429850  29.9331570
  36.6099450  80.2461770  17.6361330  36.0027400  80.9860670  17.6456630
  37.0848800  80.3361130  16.8099530  46.1832240  74.4112590  27.3118220
  46.5513060  73.5907800  27.6397790  45.3230440  74.4714480  27.7273870
  49.5494270  73.3669530  18.1205780  48.9207430  73.4715200  17.4064010
  49.0546190  73.5866310  18.9099660  41.5178300  75.6455480  19.5363660
  40.8094450  76.1141820  19.9777270  41.8022780  74.9877490  20.1708850
  43.1434230  77.0652180  27.5356190  43.6419480  77.5398000  28.2008040
  43.2857180  76.1415700  27.7426220  45.5493730  72.3706140  20.9759450
  45.4261510  72.3892270  20.0268960  46.4978290  72.4185080  21.0957850
  39.7213320  73.9540560  16.9114370  40.5703850  74.3910710  16.8454560
  39.3544590  74.2660820  17.7386430  50.3501090  73.2820140  28.3784580
  49.8474690  74.0225540  28.7178390  51.1657750  73.6704140  28.0621370
  48.6423100  78.5253320  21.8245940  47.7013240  78.5403550  21.9993630
  48.9567170  77.7389280  22.2706240  38.6204740  80.2072920  15.3849900
  39.3868010  80.0954280  15.9475330  38.6979430  79.5110890  14.7326670
  37.3151500  77.6397990  16.0682790  37.3955090  76.6925500  16.1800190
  38.2071250  77.9704870  16.1743450  34.8422300  79.4612910  31.3038960
  35.3461320  78.8820190  31.8755190  34.1029720  79.7453140  31.8415330
  36.8745380  77.6042500  32.1989030  36.9150720  77.3056370  33.1074260
  37.7290880  78.0050110  32.0396550  40.6523770  80.2038050  17.3592540
  41.0740190  80.0377920  18.2023930  40.7774610  79.3938280  16.8647680
  38.8151190  76.1834600  30.1663520  38.2847650  75.6925550  29.5386860
  39.4839260  76.6118800  29.6321450  43.1651410  79.2275660  14.6069640
  43.6857070  78.5124680  14.2410790  43.8119810  79.8661530  14.9070150
  47.7129250  80.6504060  29.9304710  48.1270270  80.8049140  30.7795130
  46.7780250  80.7759280  30.0930490  48.1851420  77.9900220  31.9343860
  48.7672190  77.2352540  31.8464340  48.3613190  78.5207660  31.1575340
  39.3023490  73.1496970  30.2460810  39.2080360  72.5317720  29.5211680
  38.7220880  73.8763260  30.0190720  42.0684930  71.7070210  27.2788200
  41.6202230  71.7294470  26.4333750  41.4350130  71.3089230  27.8758500
  44.8108380  78.3340720  29.2838480  44.9304590  77.7381860  30.0233320
  45.6702380  78.3710410  28.8639780  47.1496280  78.8877910  27.8600990
  46.6231500  79.4120530  27.2566130  47.4927620  79.5205300  28.4910720
  39.5482670  76.2771280  14.3050700  39.3471730  75.4138640  14.6664040
  39.3774720  76.1904640  13.3672300  41.5777150  74.8762070  30.5414300
  42.1676840  74.5677920  31.2292120  40.7597390  74.4041820  30.6974200
  46.3970580  74.4927880  30.7747320  45.7086100  73.8309420  30.7097310
  47.1176600  74.0466150  31.2195780  47.0270980  71.0879510  16.8337580
  47.3073270  70.2447410  17.1897000  46.2536710  71.3202620  17.3476330
  38.3465470  73.3771900  14.2928580  38.6491370  73.3839330  13.3847730
  39.0860060  73.0269760  14.7896240  41.5650400  72.3206520  15.2784780
  41.2172400  71.6430510  14.6987230  41.7663170  71.8596030  16.0928170
  51.4051700  80.3256240  17.4441490  52.1670610  80.8952890  17.5501180
  51.4206070  79.7583440  18.2149800  34.9056040  78.8494170  21.6749150
  34.2504880  78.5805810  21.0308850  35.7433990  78.7398650  21.2251130
  47.8546480  73.6435460  15.8967640  48.2731360  73.4566440  15.0564300
  47.5482540  72.7914510  16.2070570  51.3536210  78.5559600  19.5943440
  50.9779810  77.7887530  19.1624730  50.6239330  78.9382300  20.0818370
  35.9431970  79.2346740  26.2152490  36.3105010  79.1474140  27.0948510
  35.3742790  78.4713290  26.1159350  50.7435830  77.7031120  29.2282960
  50.5121920  77.4743870  28.3280910  51.0040380  78.6230670  29.1827850
  35.4947970  76.1455830  30.1210910  34.6004020  76.1122590  30.4604620
  36.0345520  76.3442620  30.8862160  49.1823900  72.9287550  32.0062660
  50.0594080  72.9370950  32.3896660  49.1944740  72.1918390  31.3955010
  34.1194120  76.0593100  17.6174480  33.2158200  76.3223300  17.4426140
  34.6034740  76.3304270  16.8374440  50.6287170  76.7817090  22.8950680
  51.1524650  76.2879740  22.2640850  51.2146590  76.9167450  23.6398250
  50.8076890  76.8656960  26.4170230  49.8579600  76.8320500  26.5315220
  50.9889900  77.7757070  26.1820000  36.6621330  75.1158640  15.5268860
  37.3713030  74.6941860  15.0416140  35.9461270  75.1833870  14.8952210
  36.3095490  71.1697970  14.5671510  37.0323620  71.7106910  14.8852730
  36.5820010  70.8961390  13.6913050  50.1187140  76.0390440  18.8343090
  50.6146260  75.8061310  19.6191970  49.9203210  75.2002280  18.4180730
  35.9987680  70.4204160  24.4694130  36.6463870  69.8701540  24.0289290
  36.4189520  70.6747310  25.2909940  51.5474300  74.6751390  21.3680770
  51.4373580  74.5207430  22.3063040  52.3081890  74.1472330  21.1256180
  49.8940020  70.6145520  27.8263770  50.5312240  71.2279660  28.1922960
  50.0414910  70.6506180  26.8813000  52.4364570  72.5059310  14.6086910
  53.3613880  72.3740490  14.4005200  52.4140360  72.5852130  15.5623360
  52.5103060  73.2769970  17.2343620  51.7154560  73.2115090  17.7636530
  52.7146340  74.2120610  17.2228970  35.7519680  70.5759830  27.2119450
  35.4034500  71.0323650  27.9777630  35.4207380  69.6816960  27.2941880
  43.2644500  71.7671710  30.7338870  43.2033390  72.3593540  31.4834280
  44.2044880  71.6597670  30.5889130  45.9019060  71.4241770  30.3731160
  46.5159470  71.7421060  29.7112240  46.4468620  70.9390360  30.9927020
  36.4240320  70.1036030  30.4870220  36.9723310  69.9224080  29.7236330
  36.4895630  69.3130140  31.0226530  46.6427100  69.9873910  26.7000450
  45.7686940  70.3209020  26.4973380  46.5337850  69.5147090  27.5252320
  47.5499080  72.1944780  28.0842170  47.2212440  71.3796540  27.7043900
  48.4981380  72.1514590  27.9607860  44.3901920  70.9043750  25.6393360
  43.6073710  71.3789250  25.9190120  44.0964850  69.9998580  25.5306540
  48.9422990  71.6066850  23.6842450  49.3831080  71.5511950  22.8364050
  48.6730580  72.5224860  23.7552630  50.8061560  71.2382090  21.6951270
  50.7449960  70.2943310  21.5482290  51.5853590  71.3462180  22.2404730
  35.7342330  71.2091230  18.1607080  36.4921690  71.3220110  17.5871110
  35.2719500  72.0460430  18.1150510  42.2756140  73.3230500  21.1509390
  41.4630650  72.9487390  20.8105270  42.7797780  72.5675580  21.4530580
  46.7781120  69.9872950  22.3892460  47.3810490  70.5593160  22.8640980
  46.0374110  70.5512390  22.1666360  49.9215720  70.3894510  17.6632740
  50.1166350  71.2877960  17.9300170  49.1345590  70.1581590  18.1565690
  38.1067480  71.7355280  16.7009050  38.6360240  70.9485080  16.5717000
  38.7395800  72.4146470  16.9344580  40.3005320  71.4730420  19.7554440
  39.6708060  70.7717730  19.9224570  39.7610460  72.2334550  19.5387600
  40.4260880  70.7514400  32.1906930  40.1445150  71.2548000  31.4267750
  40.8080580  69.9536150  31.8249060  47.0276340  70.1667980  32.7687400
  46.9141790  70.4862590  33.6638920  47.8446080  70.5680490  32.4724680
  45.9334490  78.1860450   3.1322140  45.8528540  77.2715060   2.8613850
  45.5198910  78.6827520   2.4261850  44.0652530  79.9639470   5.0131410
  43.2894630  79.4839910   5.3029980  44.7165460  79.2845120   4.8387570
  38.0818360  80.2759280   5.8907170  37.2503240  80.0207990   6.2903680
  38.6899340  80.3470050   6.6265090  34.4543320  77.8366820   5.5589260
  35.0259430  77.0689020   5.5592900  34.4544860  78.1355580   4.6495870
  35.6968190  73.2451180   7.3458190  35.5171030  72.3476930   7.6260950
  35.2948270  73.7923050   8.0205140  44.5366690  75.4467040   5.2470500
  44.9131510  74.5738920   5.1344170  44.4386200  75.7825740   4.3560940
  48.3190810  72.9417480   2.1798840  49.1400430  72.4514050   2.2224320
  48.3524890  73.5315140   2.9330680  36.3154860  75.7411680   5.9540530
  36.9964970  76.0050050   6.5727930  36.0002910  74.9012550   6.2878540
  40.5079430  76.7879040   5.0413120  41.0157650  77.2860010   5.6818140
  41.0392670  76.0114240   4.8652480  52.6090360  74.9584230   8.7442470
  51.9042530  75.3465940   8.2257580  52.8748280  75.6534520   9.3463400
  38.7915530  71.4277600   9.3076540  38.7933970  71.9449990   8.5022440
  37.9619840  70.9507780   9.2846470  48.5552290  74.8817860   4.9526380
  47.8507860  75.1702750   5.5329490  48.9164450  75.6917970   4.5925940
  38.4730860  73.1387560   7.3146990  38.8147670  73.9829610   7.0200860
  37.5346670  73.2871300   7.4312330  51.6239210  74.3272650   5.3435590
  50.6764120  74.3611630   5.4751020  51.9489200  75.1411600   5.7284950
  42.1558750  70.6269830   3.6391580  42.4633730  70.0716720   2.9227080
  41.2259450  70.7614290   3.4564570  51.0521350  79.6454180   7.3497890
  50.2239980  79.7147270   6.8748020  51.6471830  80.2308490   6.8813720
  48.0163360  76.4323500   8.2952760  47.6034540  77.2577210   8.5492750
  47.2839310  75.8468540   8.1029120  40.1496150  79.2183400   3.1571430
  39.7453150  78.5060650   2.6617330  40.2359270  78.8736640   4.0459470
  38.8624770  75.9926610   6.9370470  39.4139360  76.1021950   6.1623720
  39.3768280  76.3664210   7.6525700  38.5367500  79.5145970  10.5475810
  38.3975270  80.3868770  10.9163210  37.6548860  79.1718780  10.4023750
  51.5419930  75.4840080  12.1774880  50.9264200  75.9919750  11.6490340
  51.2216350  74.5838410  12.1200820  39.3164440  71.4563450   4.0401750
  38.8732590  72.2372990   3.7086270  39.8749430  71.7793340   4.7472690
  43.6034250  74.3231970   9.6437070  43.1413620  74.5314990  10.4557010
  43.2012360  73.5091320   9.3407740  48.6038760  75.5440920  10.7733730
  47.7532350  75.2446670  11.0942800  48.4440550  75.7882930   9.8617550
  45.6988470  77.0442670  12.8732520  46.0241880  76.2106420  12.5334750
  46.4868800  77.5671190  13.0210850  41.3540340  72.0010780   5.8991350
  41.6512670  72.9073610   5.8183370  41.9025900  71.5129560   5.2850920
  39.1078660  76.5797020   1.7683000  38.8819580  76.3634190   2.6729620
  38.3271190  77.0125480   1.4228970  41.5477870  77.4782600  12.4343270
  41.4521470  76.5377330  12.2843670  42.3909850  77.6997670  12.0391340
  44.9441290  75.2223930   2.3976930  45.3370860  75.5396130   1.5845620
  45.3058140  74.3435810   2.5121450  36.6788410  73.8896270  10.5877050
  36.2851800  74.7371480  10.7949830  35.9906810  73.2522640  10.7785690
  43.2533460  73.9731240  13.6573790  42.5631780  73.7803440  14.2919880
  43.9965760  74.2565880  14.1898090  33.9805460  71.8124730   4.6207130
  33.6918510  72.3827590   5.3332110  34.7251220  71.3329180   4.9838360
  45.5296430  77.8129680   6.4927710  44.7977550  78.3216490   6.8417810
  45.1320770  76.9959660   6.1916490  41.9673820  74.4883880   4.8980200
  41.9709880  74.0473830   4.0484740  42.8624940  74.8101210   5.0052020
  37.8176200  74.3710370   3.8574410  37.4776250  74.8485600   4.6141460
  37.0553520  73.9175490   3.4975510  45.9922340  73.2663360   5.9050650
  46.0095080  73.7172010   6.7492500  45.7437920  72.3669000   6.1184090
  49.4193090  70.6795540  11.7437030  49.7438860  69.9485200  12.2695010
  49.4549600  70.3609180  10.8418020  42.2681790  78.5485660   6.6445610
  42.6351920  78.0744230   7.3906950  42.0786850  79.4227230   6.9853950
  35.1322280  73.2929350   2.7739080  34.8469200  72.9285020   3.6117700
  35.0701140  72.5609810   2.1602220  40.0581160  77.5894300   8.9629820
  39.7538230  78.4686280   9.1880180  41.0127620  77.6494090   8.9987260
  49.3450930  80.7920650   5.3523060  50.0650050  81.2875940   4.9619170
  49.1432750  80.1138540   4.7076930  44.7269730  80.8629710  11.2392060
  44.6607040  79.9425380  10.9849650  44.0974870  80.9605150  11.9536700
  36.1144890  78.4297040  10.1101180  35.7559830  79.0950890  10.6974520
  35.8199450  77.5980590  10.4813800  39.3158010  78.8881280  12.9940730
  39.0158150  79.0338460  12.0968550  40.0869250  78.3286570  12.9014120
  50.8697670  80.3257620  10.3364440  50.1445860  80.9186400  10.1393830
  51.3973130  80.3181160   9.5377810  34.6893460  71.9190280  10.7873280
  33.9751980  72.1187200  11.3925890  35.1088500  71.1429850  11.1588080
  46.1832240  74.4112590   8.5374730  46.5513060  73.5907800   8.8654300
  45.3230440  74.4714480   8.9530380  43.1434230  77.0652180   8.7612700
  43.6419480  77.5398000   9.4264550  43.2857180  76.1415700   8.9682730
  50.3501090  73.2820140   9.6041090  49.8474690  74.0225540   9.9434900
  51.1657750  73.6704140   9.2877880  48.6423100  78.5253320   3.0502450
  47.7013240  78.5403550   3.2250140  48.9567170  77.7389280   3.4962750
  34.8422300  79.4612910  12.5295470  35.3461320  78.8820190  13.1011700
  34.1029720  79.7453140  13.0671840  36.8745380  77.6042500  13.4245540
  36.9150720  77.3056370  14.3330770  37.7290880  78.0050110  13.2653060
  38.8151190  76.1834600  11.3920030  38.2847650  75.6925550  10.7643370
  39.4839260  76.6118800  10.8577960  47.7129250  80.6504060  11.1561220
  48.1270270  80.8049140  12.0051640  46.7780250  80.7759280  11.3187000
  48.1851420  77.9900220  13.1600370  48.7672190  77.2352540  13.0720850
  48.3613190  78.5207660  12.3831850  39.3023490  73.1496970  11.4717320
  39.2080360  72.5317720  10.7468190  38.7220880  73.8763260  11.2447230
  42.0684930  71.7070210   8.5044710  41.6202230  71.7294470   7.6590260
  41.4350130  71.3089230   9.1015010  44.8108380  78.3340720  10.5094990
  44.9304590  77.7381860  11.2489830  45.6702380  78.3710410  10.0896290
  47.1496280  78.8877910   9.0857500  46.6231500  79.4120530   8.4822640
  47.4927620  79.5205300   9.7167230  41.5777150  74.8762070  11.7670810
  42.1676840  74.5677920  12.4548630  40.7597390  74.4041820  11.9230710
  46.3970580  74.4927880  12.0003830  45.7086100  73.8309420  11.9353820
  47.1176600  74.0466150  12.4452290  34.9056040  78.8494170   2.9005660
  34.2504880  78.5805810   2.2565360  35.7433990  78.7398650   2.4507640
  35.9431970  79.2346740   7.4409000  36.3105010  79.1474140   8.3205020
  35.3742790  78.4713290   7.3415860  50.7435830  77.7031120  10.4539470
  50.5121920  77.4743870   9.5537420  51.0040380  78.6230670  10.4084360
  35.4947970  76.1455830  11.3467420  34.6004020  76.1122590  11.6861130
  36.0345520  76.3442620  12.1118670  49.1823900  72.9287550  13.2319170
  50.0594080  72.9370950  13.6153170  49.1944740  72.1918390  12.6211520
  50.6287170  76.7817090   4.1207190  51.1524650  76.2879740   3.4897360
  51.2146590  76.9167450   4.8654760  50.8076890  76.8656960   7.6426740
  49.8579600  76.8320500   7.7571730  50.9889900  77.7757070   7.4076510
  35.9987680  70.4204160   5.6950640  36.6463870  69.8701540   5.2545800
  36.4189520  70.6747310   6.5166450  51.5474300  74.6751390   2.5937280
  51.4373580  74.5207430   3.5319550  52.3081890  74.1472330   2.3512690
  49.8940020  70.6145520   9.0520280  50.5312240  71.2279660   9.4179470
  50.0414910  70.6506180   8.1069510  35.7519680  70.5759830   8.4375960
  35.4034500  71.0323650   9.2034140  35.4207380  69.6816960   8.5198390
  43.2644500  71.7671710  11.9595380  43.2033390  72.3593540  12.7090790
  44.2044880  71.6597670  11.8145640  45.9019060  71.4241770  11.5987670
  46.5159470  71.7421060  10.9368750  46.4468620  70.9390360  12.2183530
  36.4240320  70.1036030  11.7126730  36.9723310  69.9224080  10.9492840
  36.4895630  69.3130140  12.2483040  46.6427100  69.9873910   7.9256960
  45.7686940  70.3209020   7.7229890  46.5337850  69.5147090   8.7508830
  47.5499080  72.1944780   9.3098680  47.2212440  71.3796540   8.9300410
  48.4981380  72.1514590   9.1864370  44.3901920  70.9043750   6.8649870
  43.6073710  71.3789250   7.1446630  44.0964850  69.9998580   6.7563050
  48.9422990  71.6066850   4.9098960  49.3831080  71.5511950   4.0620560
  48.6730580  72.5224860   4.9809140  50.8061560  71.2382090   2.9207780
  50.7449960  70.2943310   2.7738800  51.5853590  71.3462180   3.4661240
  42.2756140  73.3230500   2.3765900  41.4630650  72.9487390   2.0361780
  42.7797780  72.5675580   2.6787090  46.7781120  69.9872950   3.6148970
  47.3810490  70.5593160   4.0897490  46.0374110  70.5512390   3.3922870
  40.4260880  70.7514400  13.4163440  40.1445150  71.2548000  12.6524260
  40.8080580  69.9536150  13.0505570  47.0276340  70.1667980  13.9943910
  46.9141790  70.4862590  14.8895430  47.8446080  70.5680490  13.6981190
  45.9334490  59.4116960  78.2296100  45.8528540  58.4971570  77.9587810
  45.5198910  59.9084030  77.5235810  44.0652530  61.1895980  80.1105370
  43.2894630  60.7096420  80.4003940  44.7165460  60.5101630  79.9361530
  38.0818360  61.5015790  80.9881130  37.2503240  61.2464500  81.3877640
  38.6899340  61.5726560  81.7239050  48.0859960  65.5956170  78.8904500
  47.6241490  64.8243410  79.2191670  48.8985510  65.6222240  79.3956950
  38.0619620  65.5355880  81.1839150  38.3647660  64.6453620  81.0049370
  38.8063210  66.0926100  80.9561400  36.4910310  56.4617680  74.7723520
  35.6027010  56.8033650  74.6703400  36.7751500  56.2618000  73.8804350
  34.4543320  59.0623330  80.6563220  35.0259430  58.2945530  80.6566860
  34.4544860  59.3612090  79.7469830  44.3123270  67.8814180  78.5108490
  43.6934710  68.3371680  77.9402930  45.1675050  68.0365640  78.1098190
  43.5061520  63.8653170  80.1175530  43.4369800  62.9243110  79.9564660
  44.2681380  63.9554580  80.6898100  35.6968190  54.4707690  82.4432150
  35.5171030  53.5733440  82.7234910  35.2948270  55.0179560  83.1179100
  44.5366690  56.6723550  80.3444460  44.9131510  55.7995430  80.2318130
  44.4386200  57.0082250  79.4534900  38.6671700  55.0449180  75.8061900
  38.7738450  55.9452910  76.1130660  37.7564060  54.9967150  75.5156550
  48.3190810  54.1673990  77.2772800  49.1400430  53.6770560  77.3198280
  48.3524890  54.7571650  78.0304640  36.3154860  56.9668190  81.0514490
  36.9964970  57.2306560  81.6701890  36.0002910  56.1269060  81.3852500
  40.5079430  58.0135550  80.1387080  41.0157650  58.5116520  80.7792100
  41.0392670  57.2370750  79.9626440  45.1786620  62.7653420  75.9040400
  44.5603890  63.2302870  75.3403120  45.6909870  63.4580900  76.3209910
  40.0418380  62.2929290  82.5824000  39.7087760  62.9198210  83.2245070
  40.2185060  62.8191170  81.8025670  48.5552290  56.1074370  80.0500340
  47.8507860  56.3959260  80.6303450  48.9164450  56.9174480  79.6899900
  38.4730860  54.3644070  82.4120950  38.8147670  55.2086120  82.1174820
  37.5346670  54.5127810  82.5286290  34.5469820  63.4509950  73.2780030
  34.1697800  63.9397050  72.5464930  34.8042890  64.1235230  73.9086560
  50.1715070  65.7249500  82.3127820  49.4878590  66.3948610  82.3044490
  50.7109360  65.9230150  81.5472680  51.6239210  55.5529160  80.4409550
  50.6764120  55.5868140  80.5724980  51.9489200  56.3668110  80.8258910
  42.1558750  51.8526340  78.7365540  42.4633730  51.2973230  78.0201040
  41.2259450  51.9870800  78.5538530  47.7073810  67.5693630  81.0273000
  47.7200970  67.1655920  80.1595260  47.1549030  68.3440920  80.9234430
  49.0019230  64.2909850  76.1163170  48.8915560  63.3484180  76.2412590
  48.9987480  64.6525490  77.0025930  47.1059250  62.4723470  82.3555610
  47.5228040  62.2583580  81.5209070  47.8299070  62.7296260  82.9264230
  44.5439510  59.9175170  75.4725660  43.6168790  59.8512550  75.7014130
  44.6964330  60.8555300  75.3580900  44.5308590  56.1892170  72.4692820
  43.5912260  56.3506130  72.5545280  44.8491850  56.9077850  71.9228810
  51.0521350  60.8710690  82.4471850  50.2239980  60.9403780  81.9721980
  51.6471830  61.4565000  81.9787680  48.5736800  61.4795470  75.9760910
  47.9549220  61.1415020  75.3287210  48.5561250  60.8355230  76.6840100
  40.1496150  60.4439910  78.2545390  39.7453150  59.7317160  77.7591290
  40.2359270  60.0993150  79.1433430  40.6177850  64.1307470  80.4184600
  40.3206140  63.5252940  79.7392380  41.5677670  64.1684780  80.3073960
  38.8624770  57.2183120  82.0344430  39.4139360  57.3278460  81.2597680
  39.3768280  57.5920720  82.7499660  46.7501500  60.7182280  72.9833660
  47.1894780  59.8804710  72.8371480  47.4629920  61.3511680  73.0697800
  44.8596880  65.6578350  76.9514900  45.2992790  66.4002680  76.5370290
  44.7983770  65.9004920  77.8753860  50.3318640  51.9725090  71.2974700
  50.0191300  52.0651920  72.1973770  51.0931110  52.5506120  71.2472130
  36.8500780  59.3384890  75.7552040  36.7298380  60.0646980  75.1433310
  36.5401670  58.5687800  75.2779950  34.4886150  62.5100030  81.5620680
  34.5666570  62.6448800  80.6176400  35.1027830  61.8015920  81.7548800
  35.7333780  64.2100220  77.9726860  35.3261860  64.3514810  77.1180460
  36.6246790  63.9260380  77.7698070  47.5267060  68.6447470  74.3077910
  47.3668200  68.3550410  75.2059740  47.3613770  67.8687600  73.7723140
  40.0055440  68.4246000  76.0849530  39.8297920  67.5081540  75.8717330
  39.1511180  68.7833290  76.3247330  47.2293190  66.1535030  72.8675910
  46.5358350  66.1512320  72.2078190  47.9716050  65.7294350  72.4370080
  46.7943120  67.7797740  76.9424400  47.2500070  66.9987120  77.2563020
  47.1335640  68.4904560  77.4865580  39.3164440  52.6819960  79.1375710
  38.8732590  53.4629500  78.8060230  39.8749430  53.0049850  79.8446650
  42.4323260  52.3030660  74.0181540  41.8077440  52.2990530  74.7434850
  42.3453380  51.4361620  73.6217510  41.3540340  53.2267290  80.9965310
  41.6512670  54.1330120  80.9157330  41.9025900  52.7386070  80.3824880
  39.1078660  57.8053530  76.8656960  38.8819580  57.5890700  77.7703580
  38.3271190  58.2381990  76.5202930  46.3376420  57.8116900  75.4647610
  45.7385310  58.5352700  75.2811230  46.8856030  57.7493680  74.6824060
  44.9441290  56.4480440  77.4950890  45.3370860  56.7652640  76.6819580
  45.3058140  55.5692320  77.6095410  33.9805460  53.0381240  79.7181090
  33.6918510  53.6084100  80.4306070  34.7251220  52.5585690  80.0812320
  34.1675690  56.9801360  70.9283810  34.0850360  57.9232120  71.0698800
  33.8158750  56.8376270  70.0496160  45.5296430  59.0386190  81.5901670
  44.7977550  59.5473000  81.9391770  45.1320770  58.2216170  81.2890450
  41.9673820  55.7140390  79.9954160  41.9709880  55.2730340  79.1458700
  42.8624940  56.0357720  80.1025980  37.8176200  55.5966880  78.9548370
  37.4776250  56.0742110  79.7115420  37.0553520  55.1432000  78.5949470
  42.0293970  56.7152470  72.9860920  42.1506790  56.6738950  73.9346740
  41.6442480  57.5776620  72.8307650  45.9922340  54.4919870  81.0024610
  46.0095080  54.9428520  81.8466460  45.7437920  53.5925510  81.2158050
  41.0415470  59.0253610  72.3844220  40.4732370  58.5771860  71.7580130
  41.7504470  59.3846390  71.8509370  42.2681790  59.7742170  81.7419570
  42.6351920  59.3000740  82.4880910  42.0786850  60.6483740  82.0827910
  35.1322280  54.5185860  77.8713040  34.8469200  54.1541530  78.7091660
  35.0701140  53.7866320  77.2576180  38.5862950  63.0211800  74.6570630
  37.8125210  62.4809420  74.4969350  39.3157580  62.5018410  74.3188390
  49.3450930  62.0177160  80.4497020  50.0650050  62.5132450  80.0593130
  49.1432750  61.3395050  79.8050890  44.8060870  53.4115120  74.5926410
  43.9925480  52.9128290  74.5171720  44.6122820  54.2513370  74.1762760
  47.5209260  57.7834770  72.8888570  48.4088880  58.0952000  72.7139910
  47.4914350  56.9107020  72.4969150  38.6300350  62.6892180  78.2949440
  39.1479020  61.8860440  78.2406330  38.1784370  62.6271320  79.1366270
  43.5169850  63.9558460  73.5676740  43.8585550  64.7000690  73.0720060
  42.6882560  64.2689580  73.9301570  49.7923530  59.0946610  72.3568430
  49.7087250  59.5260830  71.5064870  50.5117720  59.5544960  72.7895250
  50.8210780  65.9488870  75.0850560  50.1786940  65.2944490  75.3594280
  50.4341440  66.3543960  74.3091230  46.3997260  63.2774300  78.9322250
  46.7521080  62.6802430  78.2723620  45.5159590  62.9518530  79.1030500
  42.4860540  64.0371990  76.3392660  43.1731670  64.5841200  76.7200250
  41.6992960  64.5812720  76.3742270  34.6252940  59.6544810  71.8309740
  35.4947790  59.9369610  72.1145660  34.1343260  60.4680680  71.7158550
  41.7887750  61.0418020  75.9518020  42.2450530  61.8523270  76.1778210
  41.4375960  60.7241160  76.7836510  37.6899530  51.3855670  76.4240540
  37.5614160  51.3773570  77.3725460  36.8661550  51.7238760  76.0731550
  45.3652440  64.5556710  81.8987770  46.0074670  63.8549870  82.0119940
  45.8901790  65.3355150  81.7184660  49.2108160  64.8405330  71.6226910
  48.9845740  64.1235770  72.2151550  48.8204360  64.5917770  70.7848660
  34.9924190  68.8672190  72.3971370  35.3521830  69.4661530  71.7428640
  34.8516530  69.4132080  73.1706400  48.7924410  62.7577270  73.2841070
  48.5046110  63.2189960  74.0718950  49.5876580  62.2975040  73.5525290
  41.0092810  66.2503390  73.2145040  41.0002910  66.9833080  72.5989550
  40.0891170  66.0034970  73.3072000  36.6099450  61.4718280  73.9591800
  36.0027400  62.2117180  73.9687100  37.0848800  61.5617640  73.1330000
  49.5494270  54.5926040  74.4436250  48.9207430  54.6971710  73.7294480
  49.0546190  54.8122820  75.2330130  43.9952410  66.3131630  71.8770230
  44.0964390  66.1095620  70.9472210  43.0954150  66.0589910  72.0818010
  41.5178300  56.8711990  75.8594130  40.8094450  57.3398330  76.3007740
  41.8022780  56.2134000  76.4939320  45.5493730  53.5962650  77.2989920
  45.4261510  53.6148780  76.3499430  46.4978290  53.6441590  77.4188320
  42.6370520  68.8317950  76.5717900  42.8912020  68.7939340  75.6497270
  41.6883000  68.7051280  76.5646150  39.7213320  55.1797070  73.2344840
  40.5703850  55.6167220  73.1685030  39.3544590  55.4917330  74.0616900
  48.6423100  59.7509830  78.1476410  47.7013240  59.7660060  78.3224100
  48.9567170  58.9645790  78.5936710  38.6204740  61.4329430  71.7080370
  39.3868010  61.3210790  72.2705800  38.6979430  60.7367400  71.0557140
  37.3151500  58.8654500  72.3913260  37.3955090  57.9182010  72.5030660
  38.2071250  59.1961380  72.4973920  50.6448680  66.9218680  79.8230670
  50.7696100  67.7449850  80.2954480  51.5114240  66.7109410  79.4754820
  38.1166210  69.0149890  79.4947800  38.8528690  68.4665350  79.7656370
  38.5007130  69.8805900  79.3553790  35.0011690  65.0823460  75.3689310
  34.0751470  65.3244600  75.3594720  35.4668120  65.9097720  75.2474060
  41.2268520  68.1880200  71.3173370  42.0197130  68.4769030  70.8655160
  40.7072870  67.7572370  70.6385850  50.2798690  67.4150330  72.7410110
  49.9940200  67.0015470  71.9264290  50.0818240  68.3438040  72.6210630
  41.7445920  63.4083610  71.1815720  41.6396560  62.7935960  71.9077100
  41.5770140  62.8849500  70.3978730  44.9848650  62.4703640  71.7857710
  44.4358750  62.9172940  72.4300450  45.6067910  61.9652890  72.3095380
  40.6523770  61.4294560  73.6823010  41.0740190  61.2634430  74.5254400
  40.7774610  60.6194790  73.1878150  43.1651410  60.4532170  70.9300110
  43.6857070  59.7381190  70.5641260  43.8119810  61.0918040  71.2300620
  39.5482670  57.5027790  70.6281170  39.3471730  56.6395150  70.9894510
  39.3774720  57.4161150  69.6902770  47.0270980  52.3136020  73.1568050
  47.3073270  51.4703920  73.5127470  46.2536710  52.5459130  73.6706800
  38.3465470  54.6028410  70.6159050  38.6491370  54.6095840  69.7078200
  39.0860060  54.2526270  71.1126710  41.5650400  53.5463030  71.6015250
  41.2172400  52.8687020  71.0217700  41.7663170  53.0852540  72.4158640
  43.7299440  68.5343780  73.2201850  44.6250230  68.8728750  73.2420610
  43.7617070  67.8123190  72.5926130  37.3695600  63.9070830  71.4488850
  37.8070470  64.4500500  72.1046430  37.8543330  63.0817780  71.4585190
  34.5841400  66.6959860  78.9009110  34.9144410  65.8280920  78.6687750
  35.0132400  66.9018380  79.7314070  39.1803320  65.0268870  76.5611080
  38.8798860  64.9033840  77.4614990  39.0740810  64.1677460  76.1526810
  35.0731610  67.5630450  81.6390740  34.6362600  67.7431250  82.4714890
  35.6409290  68.3205070  81.4972460  51.9495240  64.8065270  71.2637760
  51.1188200  64.8741920  71.7344990  52.1267070  65.6969390  70.9604620
  51.4051700  61.5512750  73.7671960  52.1670610  62.1209400  73.8731650
  51.4206070  60.9839950  74.5380270  34.9056040  60.0750680  77.9979620
  34.2504880  59.8062320  77.3539320  35.7433990  59.9655160  77.5481600
  52.4111670  62.4062850  78.6113890  52.7820500  61.6230170  78.2049860
  53.0513600  63.0951950  78.4331190  51.4570870  61.8447120  70.9244480
  51.7319710  62.7526000  70.7963700  51.2681610  61.7809650  71.8606470
  47.8546480  54.8691970  72.2198110  48.2731360  54.6822950  71.3794770
  47.5482540  54.0171020  72.5301040  51.3536210  59.7816110  75.9173910
  50.9779810  59.0144040  75.4855200  50.6239330  60.1638810  76.4048840
  34.1194120  57.2849610  73.9404950  33.2158200  57.5479810  73.7656610
  34.6034740  57.5560780  73.1604910  50.6287170  58.0073600  79.2181150
  51.1524650  57.5136250  78.5871320  51.2146590  58.1423960  79.9628720
  50.8076890  58.0913470  82.7400700  49.8579600  58.0577010  82.8545690
  50.9889900  59.0013580  82.5050470  36.6621330  56.3415150  71.8499330
  37.3713030  55.9198370  71.3646610  35.9461270  56.4090380  71.2182680
  36.3095490  52.3954480  70.8901980  37.0323620  52.9363420  71.2083200
  36.5820010  52.1217900  70.0143520  50.1187140  57.2646950  75.1573560
  50.6146260  57.0317820  75.9422440  49.9203210  56.4258790  74.7411200
  35.9987680  51.6460670  80.7924600  36.6463870  51.0958050  80.3519760
  36.4189520  51.9003820  81.6140410  51.5474300  55.9007900  77.6911240
  51.4373580  55.7463940  78.6293510  52.3081890  55.3728840  77.4486650
  52.4364570  53.7315820  70.9317380  53.3613880  53.5997000  70.7235670
  52.4140360  53.8108640  71.8853830  52.5103060  54.5026480  73.5574090
  51.7154560  54.4371600  74.0867000  52.7146340  55.4377120  73.5459440
  49.4521480  68.5418030  77.5512480  50.0480550  68.2202600  76.8746900
  49.7099630  68.0689850  78.3425750  50.0033690  69.1913330  81.3810210
  49.5436660  69.9429140  81.0068230  49.3746150  68.4719800  81.3225010
  40.4329410  67.5001570  80.5558340  40.9494430  66.8888930  80.0306600
  41.0826790  68.0030350  81.0469350  43.1724910  68.3910060  81.3827320
  43.4602720  68.1364360  80.5060330  43.6848130  67.8387420  81.9732890
  44.3901920  52.1300260  81.9623830  43.6073710  52.6045760  82.2420590
  44.0964850  51.2255090  81.8537010  48.9422990  52.8323360  80.0072920
  49.3831080  52.7768460  79.1594520  48.6730580  53.7481370  80.0783100
  50.8061560  52.4638600  78.0181740  50.7449960  51.5199820  77.8712760
  51.5853590  52.5718690  78.5635200  35.1114310  68.6030960  76.9805690
  34.9436350  67.9701640  77.6787580  34.2448820  68.8090360  76.6299880
  35.7342330  52.4347740  74.4837550  36.4921690  52.5476620  73.9101580
  35.2719500  53.2716940  74.4380980  42.2756140  54.5487010  77.4739860
  41.4630650  54.1743900  77.1335740  42.7797780  53.7932090  77.7761050
  46.7781120  51.2129460  78.7122930  47.3810490  51.7849670  79.1871450
  46.0374110  51.7768900  78.4896830  49.9215720  51.6151020  73.9863210
  50.1166350  52.5134470  74.2530640  49.1345590  51.3838100  74.4796160
  36.7177010  67.2964190  74.4255830  36.1924630  67.6772220  73.7217790
  36.6421590  67.9214960  75.1465540  38.1067480  52.9611790  73.0239520
  38.6360240  52.1741590  72.8947470  38.7395800  53.6402980  73.2575050
  40.3005320  52.6986930  76.0784910  39.6708060  51.9974240  76.2455040
  39.7610460  53.4591060  75.8618070  51.4742330  68.8551730  75.7469770
  51.6494520  68.1689470  75.1030690  50.7763900  69.3798780  75.3546440
  39.3169980  69.2446570  73.3005080  40.0488800  68.9605850  72.7528970
  39.5763650  69.0059850  74.1904460  38.4784770  65.3611300  73.3051410
  37.8493650  65.8296400  73.8537240  38.5932600  64.5160520  73.7397600
  44.0652530  61.1895980  61.3361880  43.2894630  60.7096420  61.6260450
  44.7165460  60.5101630  61.1618040  38.0818360  61.5015790  62.2137640
  37.2503240  61.2464500  62.6134150  38.6899340  61.5726560  62.9495560
  48.0859960  65.5956170  60.1161010  47.6241490  64.8243410  60.4448180
  48.8985510  65.6222240  60.6213460  38.0619620  65.5355880  62.4095660
  38.3647660  64.6453620  62.2305880  38.8063210  66.0926100  62.1817910
  34.4543320  59.0623330  61.8819730  35.0259430  58.2945530  61.8823370
  34.4544860  59.3612090  60.9726340  44.3123270  67.8814180  59.7365000
  43.6934710  68.3371680  59.1659440  45.1675050  68.0365640  59.3354700
  43.5061520  63.8653170  61.3432040  43.4369800  62.9243110  61.1821170
  44.2681380  63.9554580  61.9154610  35.6968190  54.4707690  63.6688660
  35.5171030  53.5733440  63.9491420  35.2948270  55.0179560  64.3435610
  45.1786620  62.7653420  57.1296910  44.5603890  63.2302870  56.5659630
  45.6909870  63.4580900  57.5466420  40.0418380  62.2929290  63.8080510
  39.7087760  62.9198210  64.4501580  40.2185060  62.8191170  63.0282180
  39.2537480  64.2610090  65.6229690  39.8711480  64.9361170  65.3414140
  38.3930600  64.6698070  65.5317190  50.1715070  65.7249500  63.5384330
  49.4878590  66.3948610  63.5301000  50.7109360  65.9230150  62.7729190
  47.7073810  67.5693630  62.2529510  47.7200970  67.1655920  61.3851770
  47.1549030  68.3440920  62.1490940  47.1059250  62.4723470  63.5812120
  47.5228040  62.2583580  62.7465580  47.8299070  62.7296260  64.1520740
  40.6177850  64.1307470  61.6441110  40.3206140  63.5252940  60.9648890
  41.5677670  64.1684780  61.5330470  48.7063460  67.7039340  65.3064210
  48.2294020  68.5111530  65.1136820  48.0225250  67.0517670  65.4590420
  39.7096280  63.8689160  68.2948910  38.8124810  64.0929130  68.5422310
  39.7349150  63.9924100  67.3460310  38.5367500  60.7402480  66.8706280
  38.3975270  61.6125280  67.2393680  37.6548860  60.3975290  66.7254220
  44.8596880  65.6578350  58.1771410  45.2992790  66.4002680  57.7626800
  44.7983770  65.9004920  59.1010370  40.3347850  66.6824180  69.0791430
  40.3063280  67.0867130  68.2119860  40.1712820  65.7534540  68.9163030
  52.2862670  67.4651280  70.3755600  52.7622390  67.9434170  71.0544680
  52.9069830  67.3968770  69.6501100  34.4886150  62.5100030  62.7877190
  34.5666570  62.6448800  61.8432910  35.1027830  61.8015920  62.9805310
  35.7333780  64.2100220  59.1983370  35.3261860  64.3514810  58.3436970
  36.6246790  63.9260380  58.9954580  51.6895920  64.6564130  67.5355610
  51.8158980  64.4176010  66.6172790  51.7317300  63.8248670  68.0077690
  45.5512660  68.3592130  66.1050420  46.0657330  68.2700140  66.9072850
  44.7081740  68.7051830  66.3978330  47.5267060  68.6447470  55.5334420
  47.3668200  68.3550410  56.4316250  47.3613770  67.8687600  54.9979650
  40.0055440  68.4246000  57.3106040  39.8297920  67.5081540  57.0973840
  39.1511180  68.7833290  57.5503840  46.7943120  67.7797740  58.1680910
  47.2500070  66.9987120  58.4819530  47.1335640  68.4904560  58.7122090
  51.5419930  56.7096590  68.5005350  50.9264200  57.2176260  67.9720810
  51.2216350  55.8094920  68.4431290  34.5445670  63.5514200  65.3271650
  34.7076710  63.0819560  64.5091020  35.0098120  63.0437760  65.9920490
  43.6034250  55.5488480  65.9667540  43.1413620  55.7571500  66.7787480
  43.2012360  54.7347830  65.6638210  45.6988470  58.2699180  69.1962990
  46.0241880  57.4362930  68.8565220  46.4868800  58.7927700  69.3441320
  41.5477870  58.7039110  68.7573740  41.4521470  57.7633840  68.6074140
  42.3909850  58.9254180  68.3621810  36.6788410  55.1152780  66.9107520
  36.2851800  55.9627990  67.1180300  35.9906810  54.4779150  67.1016160
  43.2533460  55.1987750  69.9804260  42.5631780  55.0059950  70.6150350
  43.9965760  55.4822390  70.5128560  49.4193090  51.9052050  68.0667500
  49.7438860  51.1741710  68.5925480  49.4549600  51.5865690  67.1648490
  36.1184650  62.9265630  67.4867460  35.7339440  62.2859300  68.0850420
  36.4296840  63.6301750  68.0562190  42.2681790  59.7742170  62.9676080
  42.6351920  59.3000740  63.7137420  42.0786850  60.6483740  63.3084420
  40.0581160  58.8150810  65.2860290  39.7538230  59.6942790  65.5110650
  41.0127620  58.8750600  65.3217730  49.3450930  62.0177160  61.6753530
  50.0650050  62.5132450  61.2849640  49.1432750  61.3395050  61.0307400
  44.7269730  62.0886220  67.5622530  44.6607040  61.1681890  67.3080120
  44.0974870  62.1861660  68.2767170  38.6300350  62.6892180  59.5205950
  39.1479020  61.8860440  59.4662840  38.1784370  62.6271320  60.3622780
  36.1144890  59.6553550  66.4331650  35.7559830  60.3207400  67.0204990
  35.8199450  58.8237100  66.8044270  39.3158010  60.1137790  69.3171200
  39.0158150  60.2594970  68.4199020  40.0869250  59.5543080  69.2244590
  44.6586460  64.9106790  67.3126330  44.6731000  63.9787750  67.0945240
  43.9511560  64.9966550  67.9516100  50.8697670  61.5514130  66.6594910
  50.1445860  62.1442910  66.4624300  51.3973130  61.5437670  65.8608280
  46.3997260  63.2774300  60.1578760  46.7521080  62.6802430  59.4980130
  45.5159590  62.9518530  60.3287010  42.4860540  64.0371990  57.5649170
  43.1731670  64.5841200  57.9456760  41.6992960  64.5812720  57.5998780
  44.0920360  66.5524360  64.4066830  44.7362580  66.7583740  65.0840250
  44.4549800  65.7912760  63.9537680  45.3652440  64.5556710  63.1244280
  46.0074670  63.8549870  63.2376450  45.8901790  65.3355150  62.9441170
  47.1390060  65.3551610  66.3280340  47.4746300  65.9418300  67.0058260
  46.2190400  65.2244320  66.5578130  34.9924190  68.8672190  53.6227880
  35.3521830  69.4661530  52.9685150  34.8516530  69.4132080  54.3962910
  34.6893460  53.1446790  67.1103750  33.9751980  53.3443710  67.7156360
  35.1088500  52.3686360  67.4818550  34.9766050  67.1327050  68.0970280
  35.0857170  66.1921790  67.9565670  34.3246610  67.3981800  67.4484010
  42.9678640  65.4042940  69.4968400  42.6475510  64.6852180  70.0414090
  42.2937000  66.0798010  69.5704460  43.9952410  66.3131630  53.1026740
  44.0964390  66.1095620  52.1728720  43.0954150  66.0589910  53.3074520
  43.1434230  58.2908690  65.0843170  43.6419480  58.7654510  65.7495020
  43.2857180  57.3672210  65.2913200  42.6370520  68.8317950  57.7974410
  42.8912020  68.7939340  56.8753780  41.6883000  68.7051280  57.7902660
  50.3501090  54.5076650  65.9271560  49.8474690  55.2482050  66.2665370
  51.1657750  54.8960650  65.6108350  50.6448680  66.9218680  61.0487180
  50.7696100  67.7449850  61.5210990  51.5114240  66.7109410  60.7011330
  38.1166210  69.0149890  60.7204310  38.8528690  68.4665350  60.9912880
  38.5007130  69.8805900  60.5810300  37.1224490  68.1995960  69.9089890
  37.9237220  68.5208010  70.3225290  36.6076310  67.8391540  70.6309800
  41.2268520  68.1880200  52.5429880  42.0197130  68.4769030  52.0911670
  40.7072870  67.7572370  51.8642360  45.9589120  64.3075830  69.8565300
  45.3527280  64.3307430  69.1161050  45.6543230  63.5758870  70.3932550
  47.3889490  68.0356120  68.4674710  48.3411240  67.9514140  68.4174950
  47.2417710  68.6997830  69.1408500  34.8422300  60.6869420  68.8525940
  35.3461320  60.1076700  69.4242170  34.1029720  60.9709650  69.3902310
  41.8960240  62.0940410  68.3861460  41.1305910  62.6625410  68.3016130
  42.0776200  61.8016620  67.4929690  49.0383590  63.8245740  68.9436480
  49.7793060  64.1621500  68.4403940  48.2756270  63.9937800  68.3906250
  36.8745380  58.8299010  69.7476010  36.9150720  58.5312880  70.6561240
  37.7290880  59.2306620  69.5883530  38.8151190  57.4091110  67.7150500
  38.2847650  56.9182060  67.0873840  39.4839260  57.8375310  67.1808430
  47.7129250  61.8760570  67.4791690  48.1270270  62.0305650  68.3282110
  46.7780250  62.0015790  67.6417470  48.1851420  59.2156730  69.4830840
  48.7672190  58.4609050  69.3951320  48.3613190  59.7464170  68.7062320
  39.3023490  54.3753480  67.7947790  39.2080360  53.7574230  67.0698660
  38.7220880  55.1019770  67.5677700  42.4744480  61.8281050  65.4487620
  42.8932590  62.6713780  65.2763860  41.5553110  61.9653090  65.2194400
  44.8108380  59.5597230  66.8325460  44.9304590  58.9638370  67.5720300
  45.6702380  59.5966920  66.4126760  47.1496280  60.1134420  65.4087970
  46.6231500  60.6377040  64.8053110  47.4927620  60.7461810  66.0397700
  40.3251900  68.1334060  66.5645350  39.7872990  68.8580120  66.2454050
  40.5785860  67.6564400  65.7742690  41.5777150  56.1018580  68.0901280
  42.1676840  55.7934430  68.7779100  40.7597390  55.6298330  68.2461180
  46.3970580  55.7184390  68.3234300  45.7086100  55.0565930  68.2584290
  47.1176600  55.2722660  68.7682760  43.1814110  69.3685270  66.8232000
  43.1072810  70.2720410  67.1304370  42.2792950  69.0497170  66.7954070
  43.7299440  68.5343780  54.4458360  44.6250230  68.8728750  54.4677120
  43.7617070  67.8123190  53.8182640  34.5841400  66.6959860  60.1265620
  34.9144410  65.8280920  59.8944260  35.0132400  66.9018380  60.9570580
  35.0731610  67.5630450  62.8647250  34.6362600  67.7431250  63.6971400
  35.6409290  68.3205070  62.7228970  50.7093790  67.0647450  67.1524560
  50.1095780  67.1240010  66.4088480  50.8387690  66.1252430  67.2821410
  34.9056040  60.0750680  59.2236130  34.2504880  59.8062320  58.5795830
  35.7433990  59.9655160  58.7738110  49.3945430  63.7899430  65.2500720
  48.5805270  64.2196590  65.5126510  49.8019630  64.4017840  64.6369770
  35.9431970  60.4603250  63.7639470  36.3105010  60.3730650  64.6435490
  35.3742790  59.6969800  63.6646330  35.4947970  57.3712340  67.6697890
  34.6004020  57.3379100  68.0091600  36.0345520  57.5699130  68.4349140
  49.1823900  54.1544060  69.5549640  50.0594080  54.1627460  69.9383640
  49.1944740  53.4174900  68.9441990  49.4521480  68.5418030  58.7768990
  50.0480550  68.2202600  58.1003410  49.7099630  68.0689850  59.5682260
  35.7519680  51.8016340  64.7606430  35.4034500  52.2580160  65.5264610
  35.4207380  50.9073470  64.8428860  37.3584050  64.9735940  68.9259620
  37.3153680  64.6028850  69.8074080  37.4895060  65.9113510  69.0661440
  41.0590080  66.5295530  64.5269340  40.8181440  66.7970090  63.6399860
  41.9992720  66.7001260  64.5820200  43.2644500  52.9928220  68.2825850
  43.2033390  53.5850050  69.0321260  44.2044880  52.8854180  68.1376110
  52.3194240  68.5489910  65.3279980  51.8252520  68.9458780  64.6107110
  51.7107530  67.9239120  65.7217260  37.1972080  67.9198190  66.0457400
  36.6032400  67.7882890  66.7847440  37.1895920  67.0836330  65.5799500
  50.0033690  69.1913330  62.6066720  49.5436660  69.9429140  62.2324740
  49.3746150  68.4719800  62.5481520  36.8284310  65.2856570  64.9965440
  36.1018370  64.6661860  64.9291390  36.8893460  65.6797180  64.1263520
  40.4329410  67.5001570  61.7814850  40.9494430  66.8888930  61.2563110
  41.0826790  68.0030350  62.2725860  43.1724910  68.3910060  62.6083830
  43.4602720  68.1364360  61.7316840  43.6848130  67.8387420  63.1989400
  35.1114310  68.6030960  58.2062200  34.9436350  67.9701640  58.9044090
  34.2448820  68.8090360  57.8556390  36.7177010  67.2964190  55.6512340
  36.1924630  67.6772220  54.9474300  36.6421590  67.9214960  56.3722050
  43.2397270  69.3126160  69.9752030  44.1664580  69.0770430  70.0187990
  43.2247700  70.1398160  69.4938060  51.4742330  68.8551730  56.9726280
  51.6494520  68.1689470  56.3287200  50.7763900  69.3798780  56.5802950
  39.3169980  69.2446570  54.5261590  40.0488800  68.9605850  53.9785480
  39.5763650  69.0059850  55.4160970  47.0276340  51.3924490  70.3174380
  46.9141790  51.7119100  71.2125900  47.8446080  51.7937000  70.0211660
  49.8074830  68.5396020  69.7993070  50.6000150  68.0445250  69.5919030
  50.1007980  69.2186160  70.4068680  47.5267060  68.6447470  36.7590930
  47.3668200  68.3550410  37.6572760  47.3613770  67.8687600  36.2236160
  40.0055440  68.4246000  38.5362550  39.8297920  67.5081540  38.3230350
  39.1511180  68.7833290  38.7760350  47.2293190  66.1535030  35.3188930
  46.5358350  66.1512320  34.6591210  47.9716050  65.7294350  34.8883100
  46.7943120  67.7797740  39.3937420  47.2500070  66.9987120  39.7076040
  47.1335640  68.4904560  39.9378600  50.8210780  65.9488870  37.5363580
  50.1786940  65.2944490  37.8107300  50.4341440  66.3543960  36.7604250
  49.2108160  64.8405330  34.0739930  48.9845740  64.1235770  34.6664570
  48.8204360  64.5917770  33.2361680  34.9766050  67.1327050  49.3226790
  35.0857170  66.1921790  49.1822180  34.3246610  67.3981800  48.6740520
  41.0092810  66.2503390  35.6658060  41.0002910  66.9833080  35.0502570
  40.0891170  66.0034970  35.7585020  43.9952410  66.3131630  34.3283250
  44.0964390  66.1095620  33.3985230  43.0954150  66.0589910  34.5331030
  42.6370520  68.8317950  39.0230920  42.8912020  68.7939340  38.1010290
  41.6883000  68.7051280  39.0159170  37.1224490  68.1995960  51.1346400
  37.9237220  68.5208010  51.5481800  36.6076310  67.8391540  51.8566310
  41.2268520  68.1880200  33.7686390  42.0197130  68.4769030  33.3168180
  40.7072870  67.7572370  33.0898870  50.2798690  67.4150330  35.1923130
  49.9940200  67.0015470  34.3777310  50.0818240  68.3438040  35.0723650
  40.3251900  68.1334060  47.7901860  39.7872990  68.8580120  47.4710560
  40.5785860  67.6564400  46.9999200  43.1814110  69.3685270  48.0488510
  43.1072810  70.2720410  48.3560880  42.2792950  69.0497170  48.0210580
  43.7299440  68.5343780  35.6714870  44.6250230  68.8728750  35.6933630
  43.7617070  67.8123190  35.0439150  49.4521480  68.5418030  40.0025500
  50.0480550  68.2202600  39.3259920  49.7099630  68.0689850  40.7938770
  37.1972080  67.9198190  47.2713910  36.6032400  67.7882890  48.0103950
  37.1895920  67.0836330  46.8056010  50.0033690  69.1913330  43.8323230
  49.5436660  69.9429140  43.4581250  49.3746150  68.4719800  43.7738030
  43.2397270  69.3126160  51.2008540  44.1664580  69.0770430  51.2444500
  43.2247700  70.1398160  50.7194570  51.4742330  68.8551730  38.1982790
  51.6494520  68.1689470  37.5543710  50.7763900  69.3798780  37.8059460
  39.3169980  69.2446570  35.7518100  40.0488800  68.9605850  35.2041990
  39.5763650  69.0059850  36.6417480  45.9334490  59.4116960  21.9065630
  45.8528540  58.4971570  21.6357340  45.5198910  59.9084030  21.2005340
  44.0652530  61.1895980  23.7874900  43.2894630  60.7096420  24.0773470
  44.7165460  60.5101630  23.6131060  48.0859960  65.5956170  22.5674030
  47.6241490  64.8243410  22.8961200  48.8985510  65.6222240  23.0726480
  38.0619620  65.5355880  24.8608680  38.3647660  64.6453620  24.6818900
  38.8063210  66.0926100  24.6330930  44.3123270  67.8814180  22.1878020
  43.6934710  68.3371680  21.6172460  45.1675050  68.0365640  21.7867720
  43.5061520  63.8653170  23.7945060  43.4369800  62.9243110  23.6334190
  44.2681380  63.9554580  24.3667630  45.1786620  62.7653420  19.5809930
  44.5603890  63.2302870  19.0172650  45.6909870  63.4580900  19.9979440
  34.5469820  63.4509950  16.9549560  34.1697800  63.9397050  16.2234460
  34.8042890  64.1235230  17.5856090  50.1715070  65.7249500  25.9897350
  49.4878590  66.3948610  25.9814020  50.7109360  65.9230150  25.2242210
  47.7073810  67.5693630  24.7042530  47.7200970  67.1655920  23.8364790
  47.1549030  68.3440920  24.6003960  49.0019230  64.2909850  19.7932700
  48.8915560  63.3484180  19.9182120  48.9987480  64.6525490  20.6795460
  47.1059250  62.4723470  26.0325140  47.5228040  62.2583580  25.1978600
  47.8299070  62.7296260  26.6033760  44.5439510  59.9175170  19.1495190
  43.6168790  59.8512550  19.3783660  44.6964330  60.8555300  19.0350430
  44.5308590  56.1892170  16.1462350  43.5912260  56.3506130  16.2314810
  44.8491850  56.9077850  15.5998340  48.5736800  61.4795470  19.6530440
  47.9549220  61.1415020  19.0056740  48.5561250  60.8355230  20.3609630
  40.1496150  60.4439910  21.9314920  39.7453150  59.7317160  21.4360820
  40.2359270  60.0993150  22.8202960  40.6177850  64.1307470  24.0954130
  40.3206140  63.5252940  23.4161910  41.5677670  64.1684780  23.9843490
  48.7063460  67.7039340  27.7577230  48.2294020  68.5111530  27.5649840
  48.0225250  67.0517670  27.9103440  46.7501500  60.7182280  16.6603190
  47.1894780  59.8804710  16.5141010  47.4629920  61.3511680  16.7467330
  44.8596880  65.6578350  20.6284430  45.2992790  66.4002680  20.2139820
  44.7983770  65.9004920  21.5523390  52.2862670  67.4651280  32.8268620
  52.7622390  67.9434170  33.5057700  52.9069830  67.3968770  32.1014120
  34.4886150  62.5100030  25.2390210  34.5666570  62.6448800  24.2945930
  35.1027830  61.8015920  25.4318330  35.7333780  64.2100220  21.6496390
  35.3261860  64.3514810  20.7949990  36.6246790  63.9260380  21.4467600
  51.6895920  64.6564130  29.9868630  51.8158980  64.4176010  29.0685810
  51.7317300  63.8248670  30.4590710  45.5512660  68.3592130  28.5563440
  46.0657330  68.2700140  29.3585870  44.7081740  68.7051830  28.8491350
  47.5267060  68.6447470  17.9847440  47.3668200  68.3550410  18.8829270
  47.3613770  67.8687600  17.4492670  40.0055440  68.4246000  19.7619060
  39.8297920  67.5081540  19.5486860  39.1511180  68.7833290  20.0016860
  47.2293190  66.1535030  16.5445440  46.5358350  66.1512320  15.8847720
  47.9716050  65.7294350  16.1139610  46.7943120  67.7797740  20.6193930
  47.2500070  66.9987120  20.9332550  47.1335640  68.4904560  21.1635110
  34.5445670  63.5514200  27.7784670  34.7076710  63.0819560  26.9604040
  35.0098120  63.0437760  28.4433510  46.3376420  57.8116900  19.1417140
  45.7385310  58.5352700  18.9580760  46.8856030  57.7493680  18.3593590
  44.9441290  56.4480440  21.1720420  45.3370860  56.7652640  20.3589110
  45.3058140  55.5692320  21.2864940  34.1675690  56.9801360  14.6053340
  34.0850360  57.9232120  14.7468330  33.8158750  56.8376270  13.7265690
  42.0293970  56.7152470  16.6630450  42.1506790  56.6738950  17.6116270
  41.6442480  57.5776620  16.5077180  41.0415470  59.0253610  16.0613750
  40.4732370  58.5771860  15.4349660  41.7504470  59.3846390  15.5278900
  38.5862950  63.0211800  18.3340160  37.8125210  62.4809420  18.1738880
  39.3157580  62.5018410  17.9957920  49.3450930  62.0177160  24.1266550
  50.0650050  62.5132450  23.7362660  49.1432750  61.3395050  23.4820420
  44.8060870  53.4115120  18.2695940  43.9925480  52.9128290  18.1941250
  44.6122820  54.2513370  17.8532290  47.5209260  57.7834770  16.5658100
  48.4088880  58.0952000  16.3909440  47.4914350  56.9107020  16.1738680
  38.6300350  62.6892180  21.9718970  39.1479020  61.8860440  21.9175860
  38.1784370  62.6271320  22.8135800  43.5169850  63.9558460  17.2446270
  43.8585550  64.7000690  16.7489590  42.6882560  64.2689580  17.6071100
  44.6586460  64.9106790  29.7639350  44.6731000  63.9787750  29.5458260
  43.9511560  64.9966550  30.4029120  49.7923530  59.0946610  16.0337960
  49.7087250  59.5260830  15.1834400  50.5117720  59.5544960  16.4664780
  50.8697670  61.5514130  29.1107930  50.1445860  62.1442910  28.9137320
  51.3973130  61.5437670  28.3121300  50.8210780  65.9488870  18.7620090
  50.1786940  65.2944490  19.0363810  50.4341440  66.3543960  17.9860760
  46.3997260  63.2774300  22.6091780  46.7521080  62.6802430  21.9493150
  45.5159590  62.9518530  22.7800030  42.4860540  64.0371990  20.0162190
  43.1731670  64.5841200  20.3969780  41.6992960  64.5812720  20.0511800
  34.6252940  59.6544810  15.5079270  35.4947790  59.9369610  15.7915190
  34.1343260  60.4680680  15.3928080  41.7887750  61.0418020  19.6287550
  42.2450530  61.8523270  19.8547740  41.4375960  60.7241160  20.4606040
  44.0920360  66.5524360  26.8579850  44.7362580  66.7583740  27.5353270
  44.4549800  65.7912760  26.4050700  45.3652440  64.5556710  25.5757300
  46.0074670  63.8549870  25.6889470  45.8901790  65.3355150  25.3954190
  49.2108160  64.8405330  15.2996440  48.9845740  64.1235770  15.8921080
  48.8204360  64.5917770  14.4618190  47.1390060  65.3551610  28.7793360
  47.4746300  65.9418300  29.4571280  46.2190400  65.2244320  29.0091150
  34.9924190  68.8672190  16.0740900  35.3521830  69.4661530  15.4198170
  34.8516530  69.4132080  16.8475930  48.7924410  62.7577270  16.9610600
  48.5046110  63.2189960  17.7488480  49.5876580  62.2975040  17.2294820
  34.9766050  67.1327050  30.5483300  35.0857170  66.1921790  30.4078690
  34.3246610  67.3981800  29.8997030  42.9678640  65.4042940  31.9481420
  42.6475510  64.6852180  32.4927110  42.2937000  66.0798010  32.0217480
  41.0092810  66.2503390  16.8914570  41.0002910  66.9833080  16.2759080
  40.0891170  66.0034970  16.9841530  36.6099450  61.4718280  17.6361330
  36.0027400  62.2117180  17.6456630  37.0848800  61.5617640  16.8099530
  49.5494270  54.5926040  18.1205780  48.9207430  54.6971710  17.4064010
  49.0546190  54.8122820  18.9099660  43.9952410  66.3131630  15.5539760
  44.0964390  66.1095620  14.6241740  43.0954150  66.0589910  15.7587540
  41.5178300  56.8711990  19.5363660  40.8094450  57.3398330  19.9777270
  41.8022780  56.2134000  20.1708850  45.5493730  53.5962650  20.9759450
  45.4261510  53.6148780  20.0268960  46.4978290  53.6441590  21.0957850
  42.6370520  68.8317950  20.2487430  42.8912020  68.7939340  19.3266800
  41.6883000  68.7051280  20.2415680  39.7213320  55.1797070  16.9114370
  40.5703850  55.6167220  16.8454560  39.3544590  55.4917330  17.7386430
  38.6204740  61.4329430  15.3849900  39.3868010  61.3210790  15.9475330
  38.6979430  60.7367400  14.7326670  37.3151500  58.8654500  16.0682790
  37.3955090  57.9182010  16.1800190  38.2071250  59.1961380  16.1743450
  50.6448680  66.9218680  23.5000200  50.7696100  67.7449850  23.9724010
  51.5114240  66.7109410  23.1524350  38.1166210  69.0149890  23.1717330
  38.8528690  68.4665350  23.4425900  38.5007130  69.8805900  23.0323320
  35.0011690  65.0823460  19.0458840  34.0751470  65.3244600  19.0364250
  35.4668120  65.9097720  18.9243590  37.1224490  68.1995960  32.3602910
  37.9237220  68.5208010  32.7738310  36.6076310  67.8391540  33.0822820
  41.2268520  68.1880200  14.9942900  42.0197130  68.4769030  14.5424690
  40.7072870  67.7572370  14.3155380  45.9589120  64.3075830  32.3078320
  45.3527280  64.3307430  31.5674070  45.6543230  63.5758870  32.8445570
  47.3889490  68.0356120  30.9187730  48.3411240  67.9514140  30.8687970
  47.2417710  68.6997830  31.5921520  50.2798690  67.4150330  16.4179640
  49.9940200  67.0015470  15.6033820  50.0818240  68.3438040  16.2980160
  41.7445920  63.4083610  14.8585250  41.6396560  62.7935960  15.5846630
  41.5770140  62.8849500  14.0748260  44.9848650  62.4703640  15.4627240
  44.4358750  62.9172940  16.1069980  45.6067910  61.9652890  15.9864910
  49.0383590  63.8245740  31.3949500  49.7793060  64.1621500  30.8916960
  48.2756270  63.9937800  30.8419270  40.6523770  61.4294560  17.3592540
  41.0740190  61.2634430  18.2023930  40.7774610  60.6194790  16.8647680
  43.1651410  60.4532170  14.6069640  43.6857070  59.7381190  14.2410790
  43.8119810  61.0918040  14.9070150  47.7129250  61.8760570  29.9304710
  48.1270270  62.0305650  30.7795130  46.7780250  62.0015790  30.0930490
  39.5482670  57.5027790  14.3050700  39.3471730  56.6395150  14.6664040
  39.3774720  57.4161150  13.3672300  40.3251900  68.1334060  29.0158370
  39.7872990  68.8580120  28.6967070  40.5785860  67.6564400  28.2255710
  38.3465470  54.6028410  14.2928580  38.6491370  54.6095840  13.3847730
  39.0860060  54.2526270  14.7896240  43.1814110  69.3685270  29.2745020
  43.1072810  70.2720410  29.5817390  42.2792950  69.0497170  29.2467090
  41.5650400  53.5463030  15.2784780  41.2172400  52.8687020  14.6987230
  41.7663170  53.0852540  16.0928170  43.7299440  68.5343780  16.8971380
  44.6250230  68.8728750  16.9190140  43.7617070  67.8123190  16.2695660
  37.3695600  63.9070830  15.1258380  37.8070470  64.4500500  15.7815960
  37.8543330  63.0817780  15.1354720  34.5841400  66.6959860  22.5778640
  34.9144410  65.8280920  22.3457280  35.0132400  66.9018380  23.4083600
  39.1803320  65.0268870  20.2380610  38.8798860  64.9033840  21.1384520
  39.0740810  64.1677460  19.8296340  35.0731610  67.5630450  25.3160270
  34.6362600  67.7431250  26.1484420  35.6409290  68.3205070  25.1741990
  50.7093790  67.0647450  29.6037580  50.1095780  67.1240010  28.8601500
  50.8387690  66.1252430  29.7334430  51.9495240  64.8065270  14.9407290
  51.1188200  64.8741920  15.4114520  52.1267070  65.6969390  14.6374150
  51.4051700  61.5512750  17.4441490  52.1670610  62.1209400  17.5501180
  51.4206070  60.9839950  18.2149800  34.9056040  60.0750680  21.6749150
  34.2504880  59.8062320  21.0308850  35.7433990  59.9655160  21.2251130
  52.4111670  62.4062850  22.2883420  52.7820500  61.6230170  21.8819390
  53.0513600  63.0951950  22.1100720  49.3945430  63.7899430  27.7013740
  48.5805270  64.2196590  27.9639530  49.8019630  64.4017840  27.0882790
  51.4570870  61.8447120  14.6014010  51.7319710  62.7526000  14.4733230
  51.2681610  61.7809650  15.5376000  47.8546480  54.8691970  15.8967640
  48.2731360  54.6822950  15.0564300  47.5482540  54.0171020  16.2070570
  51.3536210  59.7816110  19.5943440  50.9779810  59.0144040  19.1624730
  50.6239330  60.1638810  20.0818370  35.9431970  60.4603250  26.2152490
  36.3105010  60.3730650  27.0948510  35.3742790  59.6969800  26.1159350
  34.1194120  57.2849610  17.6174480  33.2158200  57.5479810  17.4426140
  34.6034740  57.5560780  16.8374440  36.6621330  56.3415150  15.5268860
  37.3713030  55.9198370  15.0416140  35.9461270  56.4090380  14.8952210
  36.3095490  52.3954480  14.5671510  37.0323620  52.9363420  14.8852730
  36.5820010  52.1217900  13.6913050  50.1187140  57.2646950  18.8343090
  50.6146260  57.0317820  19.6191970  49.9203210  56.4258790  18.4180730
  52.4364570  53.7315820  14.6086910  53.3613880  53.5997000  14.4005200
  52.4140360  53.8108640  15.5623360  49.4521480  68.5418030  21.2282010
  50.0480550  68.2202600  20.5516430  49.7099630  68.0689850  22.0195280
  41.0590080  66.5295530  26.9782360  40.8181440  66.7970090  26.0912880
  41.9992720  66.7001260  27.0333220  52.3194240  68.5489910  27.7793000
  51.8252520  68.9458780  27.0620130  51.7107530  67.9239120  28.1730280
  37.1972080  67.9198190  28.4970420  36.6032400  67.7882890  29.2360460
  37.1895920  67.0836330  28.0312520  50.0033690  69.1913330  25.0579740
  49.5436660  69.9429140  24.6837760  49.3746150  68.4719800  24.9994540
  40.4329410  67.5001570  24.2327870  40.9494430  66.8888930  23.7076130
  41.0826790  68.0030350  24.7238880  43.1724910  68.3910060  25.0596850
  43.4602720  68.1364360  24.1829860  43.6848130  67.8387420  25.6502420
  35.1114310  68.6030960  20.6575220  34.9436350  67.9701640  21.3557110
  34.2448820  68.8090360  20.3069410  36.7177010  67.2964190  18.1025360
  36.1924630  67.6772220  17.3987320  36.6421590  67.9214960  18.8235070
  38.1067480  52.9611790  16.7009050  38.6360240  52.1741590  16.5717000
  38.7395800  53.6402980  16.9344580  43.2397270  69.3126160  32.4265050
  44.1664580  69.0770430  32.4701010  43.2247700  70.1398160  31.9451080
  51.4742330  68.8551730  19.4239300  51.6494520  68.1689470  18.7800220
  50.7763900  69.3798780  19.0315970  39.3169980  69.2446570  16.9774610
  40.0488800  68.9605850  16.4298500  39.5763650  69.0059850  17.8673990
  38.4784770  65.3611300  16.9820940  37.8493650  65.8296400  17.5306770
  38.5932600  64.5160520  17.4167130  49.8074830  68.5396020  32.2506090
  50.6000150  68.0445250  32.0432050  50.1007980  69.2186160  32.8581700
  45.9334490  59.4116960   3.1322140  45.8528540  58.4971570   2.8613850
  45.5198910  59.9084030   2.4261850  44.0652530  61.1895980   5.0131410
  43.2894630  60.7096420   5.3029980  44.7165460  60.5101630   4.8387570
  38.0818360  61.5015790   5.8907170  37.2503240  61.2464500   6.2903680
  38.6899340  61.5726560   6.6265090  48.0859960  65.5956170   3.7930540
  47.6241490  64.8243410   4.1217710  48.8985510  65.6222240   4.2982990
  38.0619620  65.5355880   6.0865190  38.3647660  64.6453620   5.9075410
  38.8063210  66.0926100   5.8587440  34.4543320  59.0623330   5.5589260
  35.0259430  58.2945530   5.5592900  34.4544860  59.3612090   4.6495870
  44.3123270  67.8814180   3.4134530  43.6934710  68.3371680   2.8428970
  45.1675050  68.0365640   3.0124230  43.5061520  63.8653170   5.0201570
  43.4369800  62.9243110   4.8590700  44.2681380  63.9554580   5.5924140
  35.6968190  54.4707690   7.3458190  35.5171030  53.5733440   7.6260950
  35.2948270  55.0179560   8.0205140  44.5366690  56.6723550   5.2470500
  44.9131510  55.7995430   5.1344170  44.4386200  57.0082250   4.3560940
  48.3190810  54.1673990   2.1798840  49.1400430  53.6770560   2.2224320
  48.3524890  54.7571650   2.9330680  36.3154860  56.9668190   5.9540530
  36.9964970  57.2306560   6.5727930  36.0002910  56.1269060   6.2878540
  40.5079430  58.0135550   5.0413120  41.0157650  58.5116520   5.6818140
  41.0392670  57.2370750   4.8652480  52.6090360  56.1840740   8.7442470
  51.9042530  56.5722450   8.2257580  52.8748280  56.8791030   9.3463400
  38.7915530  52.6534110   9.3076540  38.7933970  53.1706500   8.5022440
  37.9619840  52.1764290   9.2846470  40.0418380  62.2929290   7.4850040
  39.7087760  62.9198210   8.1271110  40.2185060  62.8191170   6.7051710
  48.5552290  56.1074370   4.9526380  47.8507860  56.3959260   5.5329490
  48.9164450  56.9174480   4.5925940  38.4730860  54.3644070   7.3146990
  38.8147670  55.2086120   7.0200860  37.5346670  54.5127810   7.4312330
  39.2537480  64.2610090   9.2999220  39.8711480  64.9361170   9.0183670
  38.3930600  64.6698070   9.2086720  50.1715070  65.7249500   7.2153860
  49.4878590  66.3948610   7.2070530  50.7109360  65.9230150   6.4498720
  51.6239210  55.5529160   5.3435590  50.6764120  55.5868140   5.4751020
  51.9489200  56.3668110   5.7284950  42.1558750  51.8526340   3.6391580
  42.4633730  51.2973230   2.9227080  41.2259450  51.9870800   3.4564570
  47.7073810  67.5693630   5.9299040  47.7200970  67.1655920   5.0621300
  47.1549030  68.3440920   5.8260470  47.1059250  62.4723470   7.2581650
  47.5228040  62.2583580   6.4235110  47.8299070  62.7296260   7.8290270
  51.0521350  60.8710690   7.3497890  50.2239980  60.9403780   6.8748020
  51.6471830  61.4565000   6.8813720  48.0163360  57.6580010   8.2952760
  47.6034540  58.4833720   8.5492750  47.2839310  57.0725050   8.1029120
  40.1496150  60.4439910   3.1571430  39.7453150  59.7317160   2.6617330
  40.2359270  60.0993150   4.0459470  40.6177850  64.1307470   5.3210640
  40.3206140  63.5252940   4.6418420  41.5677670  64.1684780   5.2100000
  38.8624770  57.2183120   6.9370470  39.4139360  57.3278460   6.1623720
  39.3768280  57.5920720   7.6525700  48.7063460  67.7039340   8.9833740
  48.2294020  68.5111530   8.7906350  48.0225250  67.0517670   9.1359950
  39.7096280  63.8689160  11.9718440  38.8124810  64.0929130  12.2191840
  39.7349150  63.9924100  11.0229840  38.5367500  60.7402480  10.5475810
  38.3975270  61.6125280  10.9163210  37.6548860  60.3975290  10.4023750
  44.8596880  65.6578350   1.8540940  45.2992790  66.4002680   1.4396330
  44.7983770  65.9004920   2.7779900  40.3347850  66.6824180  12.7560960
  40.3063280  67.0867130  11.8889390  40.1712820  65.7534540  12.5932560
  52.2862670  67.4651280  14.0525130  52.7622390  67.9434170  14.7314210
  52.9069830  67.3968770  13.3270630  34.4886150  62.5100030   6.4646720
  34.5666570  62.6448800   5.5202440  35.1027830  61.8015920   6.6574840
  35.7333780  64.2100220   2.8752900  35.3261860  64.3514810   2.0206500
  36.6246790  63.9260380   2.6724110  51.6895920  64.6564130  11.2125140
  51.8158980  64.4176010  10.2942320  51.7317300  63.8248670  11.6847220
  45.5512660  68.3592130   9.7819950  46.0657330  68.2700140  10.5842380
  44.7081740  68.7051830  10.0747860  46.7943120  67.7797740   1.8450440
  47.2500070  66.9987120   2.1589060  47.1335640  68.4904560   2.3891620
  51.5419930  56.7096590  12.1774880  50.9264200  57.2176260  11.6490340
  51.2216350  55.8094920  12.1200820  34.5445670  63.5514200   9.0041180
  34.7076710  63.0819560   8.1860550  35.0098120  63.0437760   9.6690020
  39.3164440  52.6819960   4.0401750  38.8732590  53.4629500   3.7086270
  39.8749430  53.0049850   4.7472690  43.6034250  55.5488480   9.6437070
  43.1413620  55.7571500  10.4557010  43.2012360  54.7347830   9.3407740
  48.6038760  56.7697430  10.7733730  47.7532350  56.4703180  11.0942800
  48.4440550  57.0139440   9.8617550  45.6988470  58.2699180  12.8732520
  46.0241880  57.4362930  12.5334750  46.4868800  58.7927700  13.0210850
  41.3540340  53.2267290   5.8991350  41.6512670  54.1330120   5.8183370
  41.9025900  52.7386070   5.2850920  39.1078660  57.8053530   1.7683000
  38.8819580  57.5890700   2.6729620  38.3271190  58.2381990   1.4228970
  41.5477870  58.7039110  12.4343270  41.4521470  57.7633840  12.2843670
  42.3909850  58.9254180  12.0391340  44.9441290  56.4480440   2.3976930
  45.3370860  56.7652640   1.5845620  45.3058140  55.5692320   2.5121450
  36.6788410  55.1152780  10.5877050  36.2851800  55.9627990  10.7949830
  35.9906810  54.4779150  10.7785690  43.2533460  55.1987750  13.6573790
  42.5631780  55.0059950  14.2919880  43.9965760  55.4822390  14.1898090
  33.9805460  53.0381240   4.6207130  33.6918510  53.6084100   5.3332110
  34.7251220  52.5585690   4.9838360  45.5296430  59.0386190   6.4927710
  44.7977550  59.5473000   6.8417810  45.1320770  58.2216170   6.1916490
  41.9673820  55.7140390   4.8980200  41.9709880  55.2730340   4.0484740
  42.8624940  56.0357720   5.0052020  37.8176200  55.5966880   3.8574410
  37.4776250  56.0742110   4.6141460  37.0553520  55.1432000   3.4975510
  45.9922340  54.4919870   5.9050650  46.0095080  54.9428520   6.7492500
  45.7437920  53.5925510   6.1184090  49.4193090  51.9052050  11.7437030
  49.7438860  51.1741710  12.2695010  49.4549600  51.5865690  10.8418020
  36.1184650  62.9265630  11.1636990  35.7339440  62.2859300  11.7619950
  36.4296840  63.6301750  11.7331720  42.2681790  59.7742170   6.6445610
  42.6351920  59.3000740   7.3906950  42.0786850  60.6483740   6.9853950
  35.1322280  54.5185860   2.7739080  34.8469200  54.1541530   3.6117700
  35.0701140  53.7866320   2.1602220  40.0581160  58.8150810   8.9629820
  39.7538230  59.6942790   9.1880180  41.0127620  58.8750600   8.9987260
  49.3450930  62.0177160   5.3523060  50.0650050  62.5132450   4.9619170
  49.1432750  61.3395050   4.7076930  44.7269730  62.0886220  11.2392060
  44.6607040  61.1681890  10.9849650  44.0974870  62.1861660  11.9536700
  38.6300350  62.6892180   3.1975480  39.1479020  61.8860440   3.1432370
  38.1784370  62.6271320   4.0392310  36.1144890  59.6553550  10.1101180
  35.7559830  60.3207400  10.6974520  35.8199450  58.8237100  10.4813800
  39.3158010  60.1137790  12.9940730  39.0158150  60.2594970  12.0968550
  40.0869250  59.5543080  12.9014120  44.6586460  64.9106790  10.9895860
  44.6731000  63.9787750  10.7714770  43.9511560  64.9966550  11.6285630
  50.8697670  61.5514130  10.3364440  50.1445860  62.1442910  10.1393830
  51.3973130  61.5437670   9.5377810  46.3997260  63.2774300   3.8348290
  46.7521080  62.6802430   3.1749660  45.5159590  62.9518530   4.0056540
  44.0920360  66.5524360   8.0836360  44.7362580  66.7583740   8.7609780
  44.4549800  65.7912760   7.6307210  45.3652440  64.5556710   6.8013810
  46.0074670  63.8549870   6.9145980  45.8901790  65.3355150   6.6210700
  47.1390060  65.3551610  10.0049870  47.4746300  65.9418300  10.6827790
  46.2190400  65.2244320  10.2347660  34.6893460  53.1446790  10.7873280
  33.9751980  53.3443710  11.3925890  35.1088500  52.3686360  11.1588080
  34.9766050  67.1327050  11.7739810  35.0857170  66.1921790  11.6335200
  34.3246610  67.3981800  11.1253540  42.9678640  65.4042940  13.1737930
  42.6475510  64.6852180  13.7183620  42.2937000  66.0798010  13.2473990
  46.1832240  55.6369100   8.5374730  46.5513060  54.8164310   8.8654300
  45.3230440  55.6970990   8.9530380  43.1434230  58.2908690   8.7612700
  43.6419480  58.7654510   9.4264550  43.2857180  57.3672210   8.9682730
  50.3501090  54.5076650   9.6041090  49.8474690  55.2482050   9.9434900
  51.1657750  54.8960650   9.2877880  48.6423100  59.7509830   3.0502450
  47.7013240  59.7660060   3.2250140  48.9567170  58.9645790   3.4962750
  50.6448680  66.9218680   4.7256710  50.7696100  67.7449850   5.1980520
  51.5114240  66.7109410   4.3780860  38.1166210  69.0149890   4.3973840
  38.8528690  68.4665350   4.6682410  38.5007130  69.8805900   4.2579830
  37.1224490  68.1995960  13.5859420  37.9237220  68.5208010  13.9994820
  36.6076310  67.8391540  14.3079330  45.9589120  64.3075830  13.5334830
  45.3527280  64.3307430  12.7930580  45.6543230  63.5758870  14.0702080
  47.3889490  68.0356120  12.1444240  48.3411240  67.9514140  12.0944480
  47.2417710  68.6997830  12.8178030  34.8422300  60.6869420  12.5295470
  35.3461320  60.1076700  13.1011700  34.1029720  60.9709650  13.0671840
  41.8960240  62.0940410  12.0630990  41.1305910  62.6625410  11.9785660
  42.0776200  61.8016620  11.1699220  49.0383590  63.8245740  12.6206010
  49.7793060  64.1621500  12.1173470  48.2756270  63.9937800  12.0675780
  36.8745380  58.8299010  13.4245540  36.9150720  58.5312880  14.3330770
  37.7290880  59.2306620  13.2653060  38.8151190  57.4091110  11.3920030
  38.2847650  56.9182060  10.7643370  39.4839260  57.8375310  10.8577960
  47.7129250  61.8760570  11.1561220  48.1270270  62.0305650  12.0051640
  46.7780250  62.0015790  11.3187000  48.1851420  59.2156730  13.1600370
  48.7672190  58.4609050  13.0720850  48.3613190  59.7464170  12.3831850
  39.3023490  54.3753480  11.4717320  39.2080360  53.7574230  10.7468190
  38.7220880  55.1019770  11.2447230  42.0684930  52.9326720   8.5044710
  41.6202230  52.9550980   7.6590260  41.4350130  52.5345740   9.1015010
  42.4744480  61.8281050   9.1257150  42.8932590  62.6713780   8.9533390
  41.5553110  61.9653090   8.8963930  44.8108380  59.5597230  10.5094990
  44.9304590  58.9638370  11.2489830  45.6702380  59.5966920  10.0896290
  47.1496280  60.1134420   9.0857500  46.6231500  60.6377040   8.4822640
  47.4927620  60.7461810   9.7167230  40.3251900  68.1334060  10.2414880
  39.7872990  68.8580120   9.9223580  40.5785860  67.6564400   9.4512220
  41.5777150  56.1018580  11.7670810  42.1676840  55.7934430  12.4548630
  40.7597390  55.6298330  11.9230710  46.3970580  55.7184390  12.0003830
  45.7086100  55.0565930  11.9353820  47.1176600  55.2722660  12.4452290
  43.1814110  69.3685270  10.5001530  43.1072810  70.2720410  10.8073900
  42.2792950  69.0497170  10.4723600  34.5841400  66.6959860   3.8035150
  34.9144410  65.8280920   3.5713790  35.0132400  66.9018380   4.6340110
  35.0731610  67.5630450   6.5416780  34.6362600  67.7431250   7.3740930
  35.6409290  68.3205070   6.3998500  50.7093790  67.0647450  10.8294090
  50.1095780  67.1240010  10.0858010  50.8387690  66.1252430  10.9590940
  34.9056040  60.0750680   2.9005660  34.2504880  59.8062320   2.2565360
  35.7433990  59.9655160   2.4507640  52.4111670  62.4062850   3.5139930
  52.7820500  61.6230170   3.1075900  53.0513600  63.0951950   3.3357230
  49.3945430  63.7899430   8.9270250  48.5805270  64.2196590   9.1896040
  49.8019630  64.4017840   8.3139300  35.9431970  60.4603250   7.4409000
  36.3105010  60.3730650   8.3205020  35.3742790  59.6969800   7.3415860
  50.7435830  58.9287630  10.4539470  50.5121920  58.7000380   9.5537420
  51.0040380  59.8487180  10.4084360  35.4947970  57.3712340  11.3467420
  34.6004020  57.3379100  11.6861130  36.0345520  57.5699130  12.1118670
  49.1823900  54.1544060  13.2319170  50.0594080  54.1627460  13.6153170
  49.1944740  53.4174900  12.6211520  50.6287170  58.0073600   4.1207190
  51.1524650  57.5136250   3.4897360  51.2146590  58.1423960   4.8654760
  50.8076890  58.0913470   7.6426740  49.8579600  58.0577010   7.7571730
  50.9889900  59.0013580   7.4076510  35.9987680  51.6460670   5.6950640
  36.6463870  51.0958050   5.2545800  36.4189520  51.9003820   6.5166450
  51.5474300  55.9007900   2.5937280  51.4373580  55.7463940   3.5319550
  52.3081890  55.3728840   2.3512690  49.8940020  51.8402030   9.0520280
  50.5312240  52.4536170   9.4179470  50.0414910  51.8762690   8.1069510
  49.4521480  68.5418030   2.4538520  50.0480550  68.2202600   1.7772940
  49.7099630  68.0689850   3.2451790  35.7519680  51.8016340   8.4375960
  35.4034500  52.2580160   9.2034140  35.4207380  50.9073470   8.5198390
  37.3584050  64.9735940  12.6029150  37.3153680  64.6028850  13.4843610
  37.4895060  65.9113510  12.7430970  41.0590080  66.5295530   8.2038870
  40.8181440  66.7970090   7.3169390  41.9992720  66.7001260   8.2589730
  43.2644500  52.9928220  11.9595380  43.2033390  53.5850050  12.7090790
  44.2044880  52.8854180  11.8145640  45.9019060  52.6498280  11.5987670
  46.5159470  52.9677570  10.9368750  46.4468620  52.1646870  12.2183530
  52.3194240  68.5489910   9.0049510  51.8252520  68.9458780   8.2876640
  51.7107530  67.9239120   9.3986790  36.4240320  51.3292540  11.7126730
  36.9723310  51.1480590  10.9492840  36.4895630  50.5386650  12.2483040
  37.1972080  67.9198190   9.7226930  36.6032400  67.7882890  10.4616970
  37.1895920  67.0836330   9.2569030  46.6427100  51.2130420   7.9256960
  45.7686940  51.5465530   7.7229890  46.5337850  50.7403600   8.7508830
  47.5499080  53.4201290   9.3098680  47.2212440  52.6053050   8.9300410
  48.4981380  53.3771100   9.1864370  50.0033690  69.1913330   6.2836250
  49.5436660  69.9429140   5.9094270  49.3746150  68.4719800   6.2251050
  36.8284310  65.2856570   8.6734970  36.1018370  64.6661860   8.6060920
  36.8893460  65.6797180   7.8033050  40.4329410  67.5001570   5.4584380
  40.9494430  66.8888930   4.9332640  41.0826790  68.0030350   5.9495390
  43.1724910  68.3910060   6.2853360  43.4602720  68.1364360   5.4086370
  43.6848130  67.8387420   6.8758930  44.3901920  52.1300260   6.8649870
  43.6073710  52.6045760   7.1446630  44.0964850  51.2255090   6.7563050
  48.9422990  52.8323360   4.9098960  49.3831080  52.7768460   4.0620560
  48.6730580  53.7481370   4.9809140  50.8061560  52.4638600   2.9207780
  50.7449960  51.5199820   2.7738800  51.5853590  52.5718690   3.4661240
  35.1114310  68.6030960   1.8831730  34.9436350  67.9701640   2.5813620
  34.2448820  68.8090360   1.5325920  42.2756140  54.5487010   2.3765900
  41.4630650  54.1743900   2.0361780  42.7797780  53.7932090   2.6787090
  46.7781120  51.2129460   3.6148970  47.3810490  51.7849670   4.0897490
  46.0374110  51.7768900   3.3922870  43.2397270  69.3126160  13.6521560
  44.1664580  69.0770430  13.6957520  43.2247700  70.1398160  13.1707590
  40.4260880  51.9770910  13.4163440  40.1445150  52.4804510  12.6524260
  40.8080580  51.1792660  13.0505570  47.0276340  51.3924490  13.9943910
  46.9141790  51.7119100  14.8895430  47.8446080  51.7937000  13.6981190
  49.8074830  68.5396020  13.4762600  50.6000150  68.0445250  13.2688560
  50.1007980  69.2186160  14.0838210  45.9334490  40.6373470  78.2296100
  45.8528540  39.7228080  77.9587810  45.5198910  41.1340540  77.5235810
  44.0652530  42.4152490  80.1105370  43.2894630  41.9352930  80.4003940
  44.7165460  41.7358140  79.9361530  38.0818360  42.7272300  80.9881130
  37.2503240  42.4721010  81.3877640  38.6899340  42.7983070  81.7239050
  48.0859960  46.8212680  78.8904500  47.6241490  46.0499920  79.2191670
  48.8985510  46.8478750  79.3956950  38.0619620  46.7612390  81.1839150
  38.3647660  45.8710130  81.0049370  38.8063210  47.3182610  80.9561400
  36.4910310  37.6874190  74.7723520  35.6027010  38.0290160  74.6703400
  36.7751500  37.4874510  73.8804350  34.4543320  40.2879840  80.6563220
  35.0259430  39.5202040  80.6566860  34.4544860  40.5868600  79.7469830
  44.3123270  49.1070690  78.5108490  43.6934710  49.5628190  77.9402930
  45.1675050  49.2622150  78.1098190  43.5061520  45.0909680  80.1175530
  43.4369800  44.1499620  79.9564660  44.2681380  45.1811090  80.6898100
  35.6968190  35.6964200  82.4432150  35.5171030  34.7989950  82.7234910
  35.2948270  36.2436070  83.1179100  44.5366690  37.8980060  80.3444460
  44.9131510  37.0251940  80.2318130  44.4386200  38.2338760  79.4534900
  38.6671700  36.2705690  75.8061900  38.7738450  37.1709420  76.1130660
  37.7564060  36.2223660  75.5156550  48.3190810  35.3930500  77.2772800
  49.1400430  34.9027070  77.3198280  48.3524890  35.9828160  78.0304640
  36.3154860  38.1924700  81.0514490  36.9964970  38.4563070  81.6701890
  36.0002910  37.3525570  81.3852500  40.5079430  39.2392060  80.1387080
  41.0157650  39.7373030  80.7792100  41.0392670  38.4627260  79.9626440
  45.1786620  43.9909930  75.9040400  44.5603890  44.4559380  75.3403120
  45.6909870  44.6837410  76.3209910  40.0418380  43.5185800  82.5824000
  39.7087760  44.1454720  83.2245070  40.2185060  44.0447680  81.8025670
  48.5552290  37.3330880  80.0500340  47.8507860  37.6215770  80.6303450
  48.9164450  38.1430990  79.6899900  38.4730860  35.5900580  82.4120950
  38.8147670  36.4342630  82.1174820  37.5346670  35.7384320  82.5286290
  34.5469820  44.6766460  73.2780030  34.1697800  45.1653560  72.5464930
  34.8042890  45.3491740  73.9086560  50.1715070  46.9506010  82.3127820
  49.4878590  47.6205120  82.3044490  50.7109360  47.1486660  81.5472680
  51.6239210  36.7785670  80.4409550  50.6764120  36.8124650  80.5724980
  51.9489200  37.5924620  80.8258910  42.1558750  33.0782850  78.7365540
  42.4633730  32.5229740  78.0201040  41.2259450  33.2127310  78.5538530
  47.7073810  48.7950140  81.0273000  47.7200970  48.3912430  80.1595260
  47.1549030  49.5697430  80.9234430  49.0019230  45.5166360  76.1163170
  48.8915560  44.5740690  76.2412590  48.9987480  45.8782000  77.0025930
  47.1059250  43.6979980  82.3555610  47.5228040  43.4840090  81.5209070
  47.8299070  43.9552770  82.9264230  44.5439510  41.1431680  75.4725660
  43.6168790  41.0769060  75.7014130  44.6964330  42.0811810  75.3580900
  44.5308590  37.4148680  72.4692820  43.5912260  37.5762640  72.5545280
  44.8491850  38.1334360  71.9228810  51.0521350  42.0967200  82.4471850
  50.2239980  42.1660290  81.9721980  51.6471830  42.6821510  81.9787680
  48.5736800  42.7051980  75.9760910  47.9549220  42.3671530  75.3287210
  48.5561250  42.0611740  76.6840100  40.1496150  41.6696420  78.2545390
  39.7453150  40.9573670  77.7591290  40.2359270  41.3249660  79.1433430
  40.6177850  45.3563980  80.4184600  40.3206140  44.7509450  79.7392380
  41.5677670  45.3941290  80.3073960  38.8624770  38.4439630  82.0344430
  39.4139360  38.5534970  81.2597680  39.3768280  38.8177230  82.7499660
  46.7501500  41.9438790  72.9833660  47.1894780  41.1061220  72.8371480
  47.4629920  42.5768190  73.0697800  44.8596880  46.8834860  76.9514900
  45.2992790  47.6259190  76.5370290  44.7983770  47.1261430  77.8753860
  50.3318640  33.1981600  71.2974700  50.0191300  33.2908430  72.1973770
  51.0931110  33.7762630  71.2472130  36.8500780  40.5641400  75.7552040
  36.7298380  41.2903490  75.1433310  36.5401670  39.7944310  75.2779950
  34.4886150  43.7356540  81.5620680  34.5666570  43.8705310  80.6176400
  35.1027830  43.0272430  81.7548800  35.7333780  45.4356730  77.9726860
  35.3261860  45.5771320  77.1180460  36.6246790  45.1516890  77.7698070
  47.5267060  49.8703980  74.3077910  47.3668200  49.5806920  75.2059740
  47.3613770  49.0944110  73.7723140  40.0055440  49.6502510  76.0849530
  39.8297920  48.7338050  75.8717330  39.1511180  50.0089800  76.3247330
  47.2293190  47.3791540  72.8675910  46.5358350  47.3768830  72.2078190
  47.9716050  46.9550860  72.4370080  46.7943120  49.0054250  76.9424400
  47.2500070  48.2243630  77.2563020  47.1335640  49.7161070  77.4865580
  39.3164440  33.9076470  79.1375710  38.8732590  34.6886010  78.8060230
  39.8749430  34.2306360  79.8446650  42.4323260  33.5287170  74.0181540
  41.8077440  33.5247040  74.7434850  42.3453380  32.6618130  73.6217510
  41.3540340  34.4523800  80.9965310  41.6512670  35.3586630  80.9157330
  41.9025900  33.9642580  80.3824880  39.1078660  39.0310040  76.8656960
  38.8819580  38.8147210  77.7703580  38.3271190  39.4638500  76.5202930
  46.3376420  39.0373410  75.4647610  45.7385310  39.7609210  75.2811230
  46.8856030  38.9750190  74.6824060  44.9441290  37.6736950  77.4950890
  45.3370860  37.9909150  76.6819580  45.3058140  36.7948830  77.6095410
  33.9805460  34.2637750  79.7181090  33.6918510  34.8340610  80.4306070
  34.7251220  33.7842200  80.0812320  34.1675690  38.2057870  70.9283810
  34.0850360  39.1488630  71.0698800  33.8158750  38.0632780  70.0496160
  45.5296430  40.2642700  81.5901670  44.7977550  40.7729510  81.9391770
  45.1320770  39.4472680  81.2890450  41.9673820  36.9396900  79.9954160
  41.9709880  36.4986850  79.1458700  42.8624940  37.2614230  80.1025980
  37.8176200  36.8223390  78.9548370  37.4776250  37.2998620  79.7115420
  37.0553520  36.3688510  78.5949470  42.0293970  37.9408980  72.9860920
  42.1506790  37.8995460  73.9346740  41.6442480  38.8033130  72.8307650
  45.9922340  35.7176380  81.0024610  46.0095080  36.1685030  81.8466460
  45.7437920  34.8182020  81.2158050  42.2681790  40.9998680  81.7419570
  42.6351920  40.5257250  82.4880910  42.0786850  41.8740250  82.0827910
  35.1322280  35.7442370  77.8713040  34.8469200  35.3798040  78.7091660
  35.0701140  35.0122830  77.2576180  38.5862950  44.2468310  74.6570630
  37.8125210  43.7065930  74.4969350  39.3157580  43.7274920  74.3188390
  49.3450930  43.2433670  80.4497020  50.0650050  43.7388960  80.0593130
  49.1432750  42.5651560  79.8050890  44.8060870  34.6371630  74.5926410
  43.9925480  34.1384800  74.5171720  44.6122820  35.4769880  74.1762760
  47.5209260  39.0091280  72.8888570  48.4088880  39.3208510  72.7139910
  47.4914350  38.1363530  72.4969150  38.6300350  43.9148690  78.2949440
  39.1479020  43.1116950  78.2406330  38.1784370  43.8527830  79.1366270
  43.5169850  45.1814970  73.5676740  43.8585550  45.9257200  73.0720060
  42.6882560  45.4946090  73.9301570  50.8210780  47.1745380  75.0850560
  50.1786940  46.5201000  75.3594280  50.4341440  47.5800470  74.3091230
  46.3997260  44.5030810  78.9322250  46.7521080  43.9058940  78.2723620
  45.5159590  44.1775040  79.1030500  42.4860540  45.2628500  76.3392660
  43.1731670  45.8097710  76.7200250  41.6992960  45.8069230  76.3742270
  34.6252940  40.8801320  71.8309740  35.4947790  41.1626120  72.1145660
  34.1343260  41.6937190  71.7158550  41.7887750  42.2674530  75.9518020
  42.2450530  43.0779780  76.1778210  41.4375960  41.9497670  76.7836510
  37.6899530  32.6112180  76.4240540  37.5614160  32.6030080  77.3725460
  36.8661550  32.9495270  76.0731550  45.3652440  45.7813220  81.8987770
  46.0074670  45.0806380  82.0119940  45.8901790  46.5611660  81.7184660
  49.2108160  46.0661840  71.6226910  48.9845740  45.3492280  72.2151550
  48.8204360  45.8174280  70.7848660  34.9924190  50.0928700  72.3971370
  35.3521830  50.6918040  71.7428640  34.8516530  50.6388590  73.1706400
  48.7924410  43.9833780  73.2841070  48.5046110  44.4446470  74.0718950
  49.5876580  43.5231550  73.5525290  41.0092810  47.4759900  73.2145040
  41.0002910  48.2089590  72.5989550  40.0891170  47.2291480  73.3072000
  36.6099450  42.6974790  73.9591800  36.0027400  43.4373690  73.9687100
  37.0848800  42.7874150  73.1330000  49.5494270  35.8182550  74.4436250
  48.9207430  35.9228220  73.7294480  49.0546190  36.0379330  75.2330130
  43.9952410  47.5388140  71.8770230  44.0964390  47.3352130  70.9472210
  43.0954150  47.2846420  72.0818010  41.5178300  38.0968500  75.8594130
  40.8094450  38.5654840  76.3007740  41.8022780  37.4390510  76.4939320
  45.5493730  34.8219160  77.2989920  45.4261510  34.8405290  76.3499430
  46.4978290  34.8698100  77.4188320  42.6370520  50.0574460  76.5717900
  42.8912020  50.0195850  75.6497270  41.6883000  49.9307790  76.5646150
  39.7213320  36.4053580  73.2344840  40.5703850  36.8423730  73.1685030
  39.3544590  36.7173840  74.0616900  48.6423100  40.9766340  78.1476410
  47.7013240  40.9916570  78.3224100  48.9567170  40.1902300  78.5936710
  38.6204740  42.6585940  71.7080370  39.3868010  42.5467300  72.2705800
  38.6979430  41.9623910  71.0557140  37.3151500  40.0911010  72.3913260
  37.3955090  39.1438520  72.5030660  38.2071250  40.4217890  72.4973920
  50.6448680  48.1475190  79.8230670  50.7696100  48.9706360  80.2954480
  51.5114240  47.9365920  79.4754820  38.1166210  50.2406400  79.4947800
  38.8528690  49.6921860  79.7656370  38.5007130  51.1062410  79.3553790
  35.0011690  46.3079970  75.3689310  34.0751470  46.5501110  75.3594720
  35.4668120  47.1354230  75.2474060  41.2268520  49.4136710  71.3173370
  42.0197130  49.7025540  70.8655160  40.7072870  48.9828880  70.6385850
  50.2798690  48.6406840  72.7410110  49.9940200  48.2271980  71.9264290
  50.0818240  49.5694550  72.6210630  40.6523770  42.6551070  73.6823010
  41.0740190  42.4890940  74.5254400  40.7774610  41.8451300  73.1878150
  47.0270980  33.5392530  73.1568050  47.3073270  32.6960430  73.5127470
  46.2536710  33.7715640  73.6706800  38.3465470  35.8284920  70.6159050
  38.6491370  35.8352350  69.7078200  39.0860060  35.4782780  71.1126710
  41.5650400  34.7719540  71.6015250  41.2172400  34.0943530  71.0217700
  41.7663170  34.3109050  72.4158640  43.7299440  49.7600290  73.2201850
  44.6250230  50.0985260  73.2420610  43.7617070  49.0379700  72.5926130
  37.3695600  45.1327340  71.4488850  37.8070470  45.6757010  72.1046430
  37.8543330  44.3074290  71.4585190  34.5841400  47.9216370  78.9009110
  34.9144410  47.0537430  78.6687750  35.0132400  48.1274890  79.7314070
  39.1803320  46.2525380  76.5611080  38.8798860  46.1290350  77.4614990
  39.0740810  45.3933970  76.1526810  35.0731610  48.7886960  81.6390740
  34.6362600  48.9687760  82.4714890  35.6409290  49.5461580  81.4972460
  51.9495240  46.0321780  71.2637760  51.1188200  46.0998430  71.7344990
  52.1267070  46.9225900  70.9604620  51.4051700  42.7769260  73.7671960
  52.1670610  43.3465910  73.8731650  51.4206070  42.2096460  74.5380270
  34.9056040  41.3007190  77.9979620  34.2504880  41.0318830  77.3539320
  35.7433990  41.1911670  77.5481600  52.4111670  43.6319360  78.6113890
  52.7820500  42.8486680  78.2049860  53.0513600  44.3208460  78.4331190
  51.4570870  43.0703630  70.9244480  51.7319710  43.9782510  70.7963700
  51.2681610  43.0066160  71.8606470  47.8546480  36.0948480  72.2198110
  48.2731360  35.9079460  71.3794770  47.5482540  35.2427530  72.5301040
  51.3536210  41.0072620  75.9173910  50.9779810  40.2400550  75.4855200
  50.6239330  41.3895320  76.4048840  34.1194120  38.5106120  73.9404950
  33.2158200  38.7736320  73.7656610  34.6034740  38.7817290  73.1604910
  50.6287170  39.2330110  79.2181150  51.1524650  38.7392760  78.5871320
  51.2146590  39.3680470  79.9628720  50.8076890  39.3169980  82.7400700
  49.8579600  39.2833520  82.8545690  50.9889900  40.2270090  82.5050470
  36.6621330  37.5671660  71.8499330  37.3713030  37.1454880  71.3646610
  35.9461270  37.6346890  71.2182680  36.3095490  33.6210990  70.8901980
  37.0323620  34.1619930  71.2083200  36.5820010  33.3474410  70.0143520
  50.1187140  38.4903460  75.1573560  50.6146260  38.2574330  75.9422440
  49.9203210  37.6515300  74.7411200  35.9987680  32.8717180  80.7924600
  36.6463870  32.3214560  80.3519760  36.4189520  33.1260330  81.6140410
  51.5474300  37.1264410  77.6911240  51.4373580  36.9720450  78.6293510
  52.3081890  36.5985350  77.4486650  52.4364570  34.9572330  70.9317380
  53.3613880  34.8253510  70.7235670  52.4140360  35.0365150  71.8853830
  52.5103060  35.7282990  73.5574090  51.7154560  35.6628110  74.0867000
  52.7146340  36.6633630  73.5459440  49.4521480  49.7674540  77.5512480
  50.0480550  49.4459110  76.8746900  49.7099630  49.2946360  78.3425750
  50.0033690  50.4169840  81.3810210  49.5436660  51.1685650  81.0068230
  49.3746150  49.6976310  81.3225010  40.4329410  48.7258080  80.5558340
  40.9494430  48.1145440  80.0306600  41.0826790  49.2286860  81.0469350
  43.1724910  49.6166570  81.3827320  43.4602720  49.3620870  80.5060330
  43.6848130  49.0643930  81.9732890  44.3901920  33.3556770  81.9623830
  43.6073710  33.8302270  82.2420590  44.0964850  32.4511600  81.8537010
  48.9422990  34.0579870  80.0072920  49.3831080  34.0024970  79.1594520
  48.6730580  34.9737880  80.0783100  50.8061560  33.6895110  78.0181740
  50.7449960  32.7456330  77.8712760  51.5853590  33.7975200  78.5635200
  35.1114310  49.8287470  76.9805690  34.9436350  49.1958150  77.6787580
  34.2448820  50.0346870  76.6299880  35.7342330  33.6604250  74.4837550
  36.4921690  33.7733130  73.9101580  35.2719500  34.4973450  74.4380980
  42.2756140  35.7743520  77.4739860  41.4630650  35.4000410  77.1335740
  42.7797780  35.0188600  77.7761050  46.7781120  32.4385970  78.7122930
  47.3810490  33.0106180  79.1871450  46.0374110  33.0025410  78.4896830
  49.9215720  32.8407530  73.9863210  50.1166350  33.7390980  74.2530640
  49.1345590  32.6094610  74.4796160  36.7177010  48.5220700  74.4255830
  36.1924630  48.9028730  73.7217790  36.6421590  49.1471470  75.1465540
  38.1067480  34.1868300  73.0239520  38.6360240  33.3998100  72.8947470
  38.7395800  34.8659490  73.2575050  40.3005320  33.9243440  76.0784910
  39.6708060  33.2230750  76.2455040  39.7610460  34.6847570  75.8618070
  51.4742330  50.0808240  75.7469770  51.6494520  49.3945980  75.1030690
  50.7763900  50.6055290  75.3546440  39.3169980  50.4703080  73.3005080
  40.0488800  50.1862360  72.7528970  39.5763650  50.2316360  74.1904460
  38.4784770  46.5867810  73.3051410  37.8493650  47.0552910  73.8537240
  38.5932600  45.7417030  73.7397600  35.6968190  35.6964200  63.6688660
  35.5171030  34.7989950  63.9491420  35.2948270  36.2436070  64.3435610
  38.7915530  33.8790620  65.6307010  38.7933970  34.3963010  64.8252910
  37.9619840  33.4020800  65.6076940  52.2862670  48.6907790  70.3755600
  52.7622390  49.1690680  71.0544680  52.9069830  48.6225280  69.6501100
  36.6788410  36.3409290  66.9107520  36.2851800  37.1884500  67.1180300
  35.9906810  35.7035660  67.1016160  49.4193090  33.1308560  68.0667500
  49.7438860  32.3998220  68.5925480  49.4549600  32.8122200  67.1648490
  34.6893460  34.3703300  67.1103750  33.9751980  34.5700220  67.7156360
  35.1088500  33.5942870  67.4818550  34.8422300  41.9125930  68.8525940
  35.3461320  41.3333210  69.4242170  34.1029720  42.1966160  69.3902310
  49.0383590  45.0502250  68.9436480  49.7793060  45.3878010  68.4403940
  48.2756270  45.2194310  68.3906250  36.8745380  40.0555520  69.7476010
  36.9150720  39.7569390  70.6561240  37.7290880  40.4563130  69.5883530
  39.3023490  35.6009990  67.7947790  39.2080360  34.9830740  67.0698660
  38.7220880  36.3276280  67.5677700  35.4947970  38.5968850  67.6697890
  34.6004020  38.5635610  68.0091600  36.0345520  38.7955640  68.4349140
  49.1823900  35.3800570  69.5549640  50.0594080  35.3883970  69.9383640
  49.1944740  34.6431410  68.9441990  35.9987680  32.8717180  62.0181110
  36.6463870  32.3214560  61.5776270  36.4189520  33.1260330  62.8396920
  49.8940020  33.0658540  65.3750750  50.5312240  33.6792680  65.7409940
  50.0414910  33.1019200  64.4299980  35.7519680  33.0272850  64.7606430
  35.4034500  33.4836670  65.5264610  35.4207380  32.1329980  64.8428860
  43.2644500  34.2184730  68.2825850  43.2033390  34.8106560  69.0321260
  44.2044880  34.1110690  68.1376110  45.9019060  33.8754790  67.9218140
  46.5159470  34.1934080  67.2599220  46.4468620  33.3903380  68.5414000
  36.4240320  32.5549050  68.0357200  36.9723310  32.3737100  67.2723310
  36.4895630  31.7643160  68.5713510  43.2397270  50.5382670  69.9752030
  44.1664580  50.3026940  70.0187990  43.2247700  51.3654670  69.4938060
  40.4260880  33.2027420  69.7393910  40.1445150  33.7061020  68.9754730
  40.8080580  32.4049170  69.3736040  47.0276340  32.6181000  70.3174380
  46.9141790  32.9375610  71.2125900  47.8446080  33.0193510  70.0211660
  49.8074830  49.7652530  69.7993070  50.6000150  49.2701760  69.5919030
  50.1007980  50.4442670  70.4068680  44.5366690  37.8980060  24.0213990
  44.9131510  37.0251940  23.9087660  44.4386200  38.2338760  23.1304430
  48.3190810  35.3930500  20.9542330  49.1400430  34.9027070  20.9967810
  48.3524890  35.9828160  21.7074170  42.1558750  33.0782850  22.4135070
  42.4633730  32.5229740  21.6970570  41.2259450  33.2127310  22.2308060
  50.3318640  33.1981600  14.9744230  50.0191300  33.2908430  15.8743300
  51.0931110  33.7762630  14.9241660  42.4323260  33.5287170  17.6951070
  41.8077440  33.5247040  18.4204380  42.3453380  32.6618130  17.2987040
  34.1675690  38.2057870  14.6053340  34.0850360  39.1488630  14.7468330
  33.8158750  38.0632780  13.7265690  47.5209260  39.0091280  16.5658100
  48.4088880  39.3208510  16.3909440  47.4914350  38.1363530  16.1738680
  34.6252940  40.8801320  15.5079270  35.4947790  41.1626120  15.7915190
  34.1343260  41.6937190  15.3928080  37.6899530  32.6112180  20.1010070
  37.5614160  32.6030080  21.0494990  36.8661550  32.9495270  19.7501080
  34.9924190  50.0928700  16.0740900  35.3521830  50.6918040  15.4198170
  34.8516530  50.6388590  16.8475930  41.0092810  47.4759900  16.8914570
  41.0002910  48.2089590  16.2759080  40.0891170  47.2291480  16.9841530
  45.5493730  34.8219160  20.9759450  45.4261510  34.8405290  20.0268960
  46.4978290  34.8698100  21.0957850  41.2268520  49.4136710  14.9942900
  42.0197130  49.7025540  14.5424690  40.7072870  48.9828880  14.3155380
  47.0270980  33.5392530  16.8337580  47.3073270  32.6960430  17.1897000
  46.2536710  33.7715640  17.3476330  38.3465470  35.8284920  14.2928580
  38.6491370  35.8352350  13.3847730  39.0860060  35.4782780  14.7896240
  43.7299440  49.7600290  16.8971380  44.6250230  50.0985260  16.9190140
  43.7617070  49.0379700  16.2695660  37.3695600  45.1327340  15.1258380
  37.8070470  45.6757010  15.7815960  37.8543330  44.3074290  15.1354720
  47.8546480  36.0948480  15.8967640  48.2731360  35.9079460  15.0564300
  47.5482540  35.2427530  16.2070570  34.1194120  38.5106120  17.6174480
  33.2158200  38.7736320  17.4426140  34.6034740  38.7817290  16.8374440
  36.6621330  37.5671660  15.5268860  37.3713030  37.1454880  15.0416140
  35.9461270  37.6346890  14.8952210  36.3095490  33.6210990  14.5671510
  37.0323620  34.1619930  14.8852730  36.5820010  33.3474410  13.6913050
  52.4364570  34.9572330  14.6086910  53.3613880  34.8253510  14.4005200
  52.4140360  35.0365150  15.5623360  35.7342330  33.6604250  18.1607080
  36.4921690  33.7733130  17.5871110  35.2719500  34.4973450  18.1150510
  38.1067480  34.1868300  16.7009050  38.6360240  33.3998100  16.5717000
  38.7395800  34.8659490  16.9344580  40.3005320  33.9243440  19.7554440
  39.6708060  33.2230750  19.9224570  39.7610460  34.6847570  19.5387600
  39.3169980  50.4703080  16.9774610  40.0488800  50.1862360  16.4298500
  39.5763650  50.2316360  17.8673990  38.4784770  46.5867810  16.9820940
  37.8493650  47.0552910  17.5306770  38.5932600  45.7417030  17.4167130
  45.9334490  40.6373470   3.1322140  45.8528540  39.7228080   2.8613850
  45.5198910  41.1340540   2.4261850  44.0652530  42.4152490   5.0131410
  43.2894630  41.9352930   5.3029980  44.7165460  41.7358140   4.8387570
  38.0818360  42.7272300   5.8907170  37.2503240  42.4721010   6.2903680
  38.6899340  42.7983070   6.6265090  48.0859960  46.8212680   3.7930540
  47.6241490  46.0499920   4.1217710  48.8985510  46.8478750   4.2982990
  38.0619620  46.7612390   6.0865190  38.3647660  45.8710130   5.9075410
  38.8063210  47.3182610   5.8587440  34.4543320  40.2879840   5.5589260
  35.0259430  39.5202040   5.5592900  34.4544860  40.5868600   4.6495870
  44.3123270  49.1070690   3.4134530  43.6934710  49.5628190   2.8428970
  45.1675050  49.2622150   3.0124230  43.5061520  45.0909680   5.0201570
  43.4369800  44.1499620   4.8590700  44.2681380  45.1811090   5.5924140
  35.6968190  35.6964200   7.3458190  35.5171030  34.7989950   7.6260950
  35.2948270  36.2436070   8.0205140  44.5366690  37.8980060   5.2470500
  44.9131510  37.0251940   5.1344170  44.4386200  38.2338760   4.3560940
  48.3190810  35.3930500   2.1798840  49.1400430  34.9027070   2.2224320
  48.3524890  35.9828160   2.9330680  36.3154860  38.1924700   5.9540530
  36.9964970  38.4563070   6.5727930  36.0002910  37.3525570   6.2878540
  40.5079430  39.2392060   5.0413120  41.0157650  39.7373030   5.6818140
  41.0392670  38.4627260   4.8652480  52.6090360  37.4097250   8.7442470
  51.9042530  37.7978960   8.2257580  52.8748280  38.1047540   9.3463400
  38.7915530  33.8790620   9.3076540  38.7933970  34.3963010   8.5022440
  37.9619840  33.4020800   9.2846470  40.0418380  43.5185800   7.4850040
  39.7087760  44.1454720   8.1271110  40.2185060  44.0447680   6.7051710
  48.5552290  37.3330880   4.9526380  47.8507860  37.6215770   5.5329490
  48.9164450  38.1430990   4.5925940  38.4730860  35.5900580   7.3146990
  38.8147670  36.4342630   7.0200860  37.5346670  35.7384320   7.4312330
  39.2537480  45.4866600   9.2999220  39.8711480  46.1617680   9.0183670
  38.3930600  45.8954580   9.2086720  50.1715070  46.9506010   7.2153860
  49.4878590  47.6205120   7.2070530  50.7109360  47.1486660   6.4498720
  51.6239210  36.7785670   5.3435590  50.6764120  36.8124650   5.4751020
  51.9489200  37.5924620   5.7284950  42.1558750  33.0782850   3.6391580
  42.4633730  32.5229740   2.9227080  41.2259450  33.2127310   3.4564570
  47.7073810  48.7950140   5.9299040  47.7200970  48.3912430   5.0621300
  47.1549030  49.5697430   5.8260470  47.1059250  43.6979980   7.2581650
  47.5228040  43.4840090   6.4235110  47.8299070  43.9552770   7.8290270
  51.0521350  42.0967200   7.3497890  50.2239980  42.1660290   6.8748020
  51.6471830  42.6821510   6.8813720  48.0163360  38.8836520   8.2952760
  47.6034540  39.7090230   8.5492750  47.2839310  38.2981560   8.1029120
  40.1496150  41.6696420   3.1571430  39.7453150  40.9573670   2.6617330
  40.2359270  41.3249660   4.0459470  40.6177850  45.3563980   5.3210640
  40.3206140  44.7509450   4.6418420  41.5677670  45.3941290   5.2100000
  38.8624770  38.4439630   6.9370470  39.4139360  38.5534970   6.1623720
  39.3768280  38.8177230   7.6525700  48.7063460  48.9295850   8.9833740
  48.2294020  49.7368040   8.7906350  48.0225250  48.2774180   9.1359950
  39.7096280  45.0945670  11.9718440  38.8124810  45.3185640  12.2191840
  39.7349150  45.2180610  11.0229840  38.5367500  41.9658990  10.5475810
  38.3975270  42.8381790  10.9163210  37.6548860  41.6231800  10.4023750
  44.8596880  46.8834860   1.8540940  45.2992790  47.6259190   1.4396330
  44.7983770  47.1261430   2.7779900  40.3347850  47.9080690  12.7560960
  40.3063280  48.3123640  11.8889390  40.1712820  46.9791050  12.5932560
  34.4886150  43.7356540   6.4646720  34.5666570  43.8705310   5.5202440
  35.1027830  43.0272430   6.6574840  35.7333780  45.4356730   2.8752900
  35.3261860  45.5771320   2.0206500  36.6246790  45.1516890   2.6724110
  51.6895920  45.8820640  11.2125140  51.8158980  45.6432520  10.2942320
  51.7317300  45.0505180  11.6847220  45.5512660  49.5848640   9.7819950
  46.0657330  49.4956650  10.5842380  44.7081740  49.9308340  10.0747860
  46.7943120  49.0054250   1.8450440  47.2500070  48.2243630   2.1589060
  47.1335640  49.7161070   2.3891620  51.5419930  37.9353100  12.1774880
  50.9264200  38.4432770  11.6490340  51.2216350  37.0351430  12.1200820
  34.5445670  44.7770710   9.0041180  34.7076710  44.3076070   8.1860550
  35.0098120  44.2694270   9.6690020  39.3164440  33.9076470   4.0401750
  38.8732590  34.6886010   3.7086270  39.8749430  34.2306360   4.7472690
  43.6034250  36.7744990   9.6437070  43.1413620  36.9828010  10.4557010
  43.2012360  35.9604340   9.3407740  48.6038760  37.9953940  10.7733730
  47.7532350  37.6959690  11.0942800  48.4440550  38.2395950   9.8617550
  45.6988470  39.4955690  12.8732520  46.0241880  38.6619440  12.5334750
  46.4868800  40.0184210  13.0210850  41.3540340  34.4523800   5.8991350
  41.6512670  35.3586630   5.8183370  41.9025900  33.9642580   5.2850920
  39.1078660  39.0310040   1.7683000  38.8819580  38.8147210   2.6729620
  38.3271190  39.4638500   1.4228970  44.9441290  37.6736950   2.3976930
  45.3370860  37.9909150   1.5845620  45.3058140  36.7948830   2.5121450
  36.6788410  36.3409290  10.5877050  36.2851800  37.1884500  10.7949830
  35.9906810  35.7035660  10.7785690  33.9805460  34.2637750   4.6207130
  33.6918510  34.8340610   5.3332110  34.7251220  33.7842200   4.9838360
  45.5296430  40.2642700   6.4927710  44.7977550  40.7729510   6.8417810
  45.1320770  39.4472680   6.1916490  41.9673820  36.9396900   4.8980200
  41.9709880  36.4986850   4.0484740  42.8624940  37.2614230   5.0052020
  37.8176200  36.8223390   3.8574410  37.4776250  37.2998620   4.6141460
  37.0553520  36.3688510   3.4975510  45.9922340  35.7176380   5.9050650
  46.0095080  36.1685030   6.7492500  45.7437920  34.8182020   6.1184090
  49.4193090  33.1308560  11.7437030  49.7438860  32.3998220  12.2695010
  49.4549600  32.8122200  10.8418020  36.1184650  44.1522140  11.1636990
  35.7339440  43.5115810  11.7619950  36.4296840  44.8558260  11.7331720
  42.2681790  40.9998680   6.6445610  42.6351920  40.5257250   7.3906950
  42.0786850  41.8740250   6.9853950  35.1322280  35.7442370   2.7739080
  34.8469200  35.3798040   3.6117700  35.0701140  35.0122830   2.1602220
  40.0581160  40.0407320   8.9629820  39.7538230  40.9199300   9.1880180
  41.0127620  40.1007110   8.9987260  49.3450930  43.2433670   5.3523060
  50.0650050  43.7388960   4.9619170  49.1432750  42.5651560   4.7076930
  44.7269730  43.3142730  11.2392060  44.6607040  42.3938400  10.9849650
  44.0974870  43.4118170  11.9536700  38.6300350  43.9148690   3.1975480
  39.1479020  43.1116950   3.1432370  38.1784370  43.8527830   4.0392310
  36.1144890  40.8810060  10.1101180  35.7559830  41.5463910  10.6974520
  35.8199450  40.0493610  10.4813800  44.6586460  46.1363300  10.9895860
  44.6731000  45.2044260  10.7714770  43.9511560  46.2223060  11.6285630
  50.8697670  42.7770640  10.3364440  50.1445860  43.3699420  10.1393830
  51.3973130  42.7694180   9.5377810  46.3997260  44.5030810   3.8348290
  46.7521080  43.9058940   3.1749660  45.5159590  44.1775040   4.0056540
  44.0920360  47.7780870   8.0836360  44.7362580  47.9840250   8.7609780
  44.4549800  47.0169270   7.6307210  45.3652440  45.7813220   6.8013810
  46.0074670  45.0806380   6.9145980  45.8901790  46.5611660   6.6210700
  47.1390060  46.5808120  10.0049870  47.4746300  47.1674810  10.6827790
  46.2190400  46.4500830  10.2347660  34.6893460  34.3703300  10.7873280
  33.9751980  34.5700220  11.3925890  35.1088500  33.5942870  11.1588080
  34.9766050  48.3583560  11.7739810  35.0857170  47.4178300  11.6335200
  34.3246610  48.6238310  11.1253540  42.9678640  46.6299450  13.1737930
  42.6475510  45.9108690  13.7183620  42.2937000  47.3054520  13.2473990
  46.1832240  36.8625610   8.5374730  46.5513060  36.0420820   8.8654300
  45.3230440  36.9227500   8.9530380  43.1434230  39.5165200   8.7612700
  43.6419480  39.9911020   9.4264550  43.2857180  38.5928720   8.9682730
  50.3501090  35.7333160   9.6041090  49.8474690  36.4738560   9.9434900
  51.1657750  36.1217160   9.2877880  48.6423100  40.9766340   3.0502450
  47.7013240  40.9916570   3.2250140  48.9567170  40.1902300   3.4962750
  50.6448680  48.1475190   4.7256710  50.7696100  48.9706360   5.1980520
  51.5114240  47.9365920   4.3780860  38.1166210  50.2406400   4.3973840
  38.8528690  49.6921860   4.6682410  38.5007130  51.1062410   4.2579830
  37.1224490  49.4252470  13.5859420  37.9237220  49.7464520  13.9994820
  36.6076310  49.0648050  14.3079330  47.3889490  49.2612630  12.1444240
  48.3411240  49.1770650  12.0944480  47.2417710  49.9254340  12.8178030
  34.8422300  41.9125930  12.5295470  35.3461320  41.3333210  13.1011700
  34.1029720  42.1966160  13.0671840  41.8960240  43.3196920  12.0630990
  41.1305910  43.8881920  11.9785660  42.0776200  43.0273130  11.1699220
  36.8745380  40.0555520  13.4245540  36.9150720  39.7569390  14.3330770
  37.7290880  40.4563130  13.2653060  38.8151190  38.6347620  11.3920030
  38.2847650  38.1438570  10.7643370  39.4839260  39.0631820  10.8577960
  47.7129250  43.1017080  11.1561220  48.1270270  43.2562160  12.0051640
  46.7780250  43.2272300  11.3187000  48.1851420  40.4413240  13.1600370
  48.7672190  39.6865560  13.0720850  48.3613190  40.9720680  12.3831850
  39.3023490  35.6009990  11.4717320  39.2080360  34.9830740  10.7468190
  38.7220880  36.3276280  11.2447230  42.0684930  34.1583230   8.5044710
  41.6202230  34.1807490   7.6590260  41.4350130  33.7602250   9.1015010
  42.4744480  43.0537560   9.1257150  42.8932590  43.8970290   8.9533390
  41.5553110  43.1909600   8.8963930  44.8108380  40.7853740  10.5094990
  44.9304590  40.1894880  11.2489830  45.6702380  40.8223430  10.0896290
  47.1496280  41.3390930   9.0857500  46.6231500  41.8633550   8.4822640
  47.4927620  41.9718320   9.7167230  40.3251900  49.3590570  10.2414880
  39.7872990  50.0836630   9.9223580  40.5785860  48.8820910   9.4512220
  41.5777150  37.3275090  11.7670810  42.1676840  37.0190940  12.4548630
  40.7597390  36.8554840  11.9230710  46.3970580  36.9440900  12.0003830
  45.7086100  36.2822440  11.9353820  47.1176600  36.4979170  12.4452290
  43.1814110  50.5941780  10.5001530  43.1072810  51.4976920  10.8073900
  42.2792950  50.2753680  10.4723600  34.5841400  47.9216370   3.8035150
  34.9144410  47.0537430   3.5713790  35.0132400  48.1274890   4.6340110
  35.0731610  48.7886960   6.5416780  34.6362600  48.9687760   7.3740930
  35.6409290  49.5461580   6.3998500  50.7093790  48.2903960  10.8294090
  50.1095780  48.3496520  10.0858010  50.8387690  47.3508940  10.9590940
  34.9056040  41.3007190   2.9005660  34.2504880  41.0318830   2.2565360
  35.7433990  41.1911670   2.4507640  52.4111670  43.6319360   3.5139930
  52.7820500  42.8486680   3.1075900  53.0513600  44.3208460   3.3357230
  49.3945430  45.0155940   8.9270250  48.5805270  45.4453100   9.1896040
  49.8019630  45.6274350   8.3139300  35.9431970  41.6859760   7.4409000
  36.3105010  41.5987160   8.3205020  35.3742790  40.9226310   7.3415860
  50.7435830  40.1544140  10.4539470  50.5121920  39.9256890   9.5537420
  51.0040380  41.0743690  10.4084360  35.4947970  38.5968850  11.3467420
  34.6004020  38.5635610  11.6861130  36.0345520  38.7955640  12.1118670
  49.1823900  35.3800570  13.2319170  50.0594080  35.3883970  13.6153170
  49.1944740  34.6431410  12.6211520  50.6287170  39.2330110   4.1207190
  51.1524650  38.7392760   3.4897360  51.2146590  39.3680470   4.8654760
  50.8076890  39.3169980   7.6426740  49.8579600  39.2833520   7.7571730
  50.9889900  40.2270090   7.4076510  35.9987680  32.8717180   5.6950640
  36.6463870  32.3214560   5.2545800  36.4189520  33.1260330   6.5166450
  51.5474300  37.1264410   2.5937280  51.4373580  36.9720450   3.5319550
  52.3081890  36.5985350   2.3512690  49.8940020  33.0658540   9.0520280
  50.5312240  33.6792680   9.4179470  50.0414910  33.1019200   8.1069510
  49.4521480  49.7674540   2.4538520  50.0480550  49.4459110   1.7772940
  49.7099630  49.2946360   3.2451790  35.7519680  33.0272850   8.4375960
  35.4034500  33.4836670   9.2034140  35.4207380  32.1329980   8.5198390
  37.3584050  46.1992450  12.6029150  37.3153680  45.8285360  13.4843610
  37.4895060  47.1370020  12.7430970  41.0590080  47.7552040   8.2038870
  40.8181440  48.0226600   7.3169390  41.9992720  47.9257770   8.2589730
  43.2644500  34.2184730  11.9595380  43.2033390  34.8106560  12.7090790
  44.2044880  34.1110690  11.8145640  45.9019060  33.8754790  11.5987670
  46.5159470  34.1934080  10.9368750  46.4468620  33.3903380  12.2183530
  52.3194240  49.7746420   9.0049510  51.8252520  50.1715290   8.2876640
  51.7107530  49.1495630   9.3986790  36.4240320  32.5549050  11.7126730
  36.9723310  32.3737100  10.9492840  36.4895630  31.7643160  12.2483040
  37.1972080  49.1454700   9.7226930  36.6032400  49.0139400  10.4616970
  37.1895920  48.3092840   9.2569030  46.6427100  32.4386930   7.9256960
  45.7686940  32.7722040   7.7229890  46.5337850  31.9660110   8.7508830
  47.5499080  34.6457800   9.3098680  47.2212440  33.8309560   8.9300410
  48.4981380  34.6027610   9.1864370  50.0033690  50.4169840   6.2836250
  49.5436660  51.1685650   5.9094270  49.3746150  49.6976310   6.2251050
  36.8284310  46.5113080   8.6734970  36.1018370  45.8918370   8.6060920
  36.8893460  46.9053690   7.8033050  40.4329410  48.7258080   5.4584380
  40.9494430  48.1145440   4.9332640  41.0826790  49.2286860   5.9495390
  43.1724910  49.6166570   6.2853360  43.4602720  49.3620870   5.4086370
  43.6848130  49.0643930   6.8758930  44.3901920  33.3556770   6.8649870
  43.6073710  33.8302270   7.1446630  44.0964850  32.4511600   6.7563050
  48.9422990  34.0579870   4.9098960  49.3831080  34.0024970   4.0620560
  48.6730580  34.9737880   4.9809140  50.8061560  33.6895110   2.9207780
  50.7449960  32.7456330   2.7738800  51.5853590  33.7975200   3.4661240
  35.1114310  49.8287470   1.8831730  34.9436350  49.1958150   2.5813620
  34.2448820  50.0346870   1.5325920  42.2756140  35.7743520   2.3765900
  41.4630650  35.4000410   2.0361780  42.7797780  35.0188600   2.6787090
  46.7781120  32.4385970   3.6148970  47.3810490  33.0106180   4.0897490
  46.0374110  33.0025410   3.3922870  43.2397270  50.5382670  13.6521560
  44.1664580  50.3026940  13.6957520  43.2247700  51.3654670  13.1707590
  40.4260880  33.2027420  13.4163440  40.1445150  33.7061020  12.6524260
  40.8080580  32.4049170  13.0505570  47.0276340  32.6181000  13.9943910
  46.9141790  32.9375610  14.8895430  47.8446080  33.0193510  13.6981190
  45.9334490  21.8629980  78.2296100  45.8528540  20.9484590  77.9587810
  45.5198910  22.3597050  77.5235810  44.0652530  23.6409000  80.1105370
  43.2894630  23.1609440  80.4003940  44.7165460  22.9614650  79.9361530
  38.0818360  23.9528810  80.9881130  37.2503240  23.6977520  81.3877640
  38.6899340  24.0239580  81.7239050  48.0859960  28.0469190  78.8904500
  47.6241490  27.2756430  79.2191670  48.8985510  28.0735260  79.3956950
  38.0619620  27.9868900  81.1839150  38.3647660  27.0966640  81.0049370
  38.8063210  28.5439120  80.9561400  36.4910310  18.9130700  74.7723520
  35.6027010  19.2546670  74.6703400  36.7751500  18.7131020  73.8804350
  34.4543320  21.5136350  80.6563220  35.0259430  20.7458550  80.6566860
  34.4544860  21.8125110  79.7469830  44.3123270  30.3327200  78.5108490
  43.6934710  30.7884700  77.9402930  45.1675050  30.4878660  78.1098190
  43.5061520  26.3166190  80.1175530  43.4369800  25.3756130  79.9564660
  44.2681380  26.4067600  80.6898100  35.6968190  16.9220710  82.4432150
  35.5171030  16.0246460  82.7234910  35.2948270  17.4692580  83.1179100
  44.5366690  19.1236570  80.3444460  44.9131510  18.2508450  80.2318130
  44.4386200  19.4595270  79.4534900  38.6671700  17.4962200  75.8061900
  38.7738450  18.3965930  76.1130660  37.7564060  17.4480170  75.5156550
  48.3190810  16.6187010  77.2772800  49.1400430  16.1283580  77.3198280
  48.3524890  17.2084670  78.0304640  36.3154860  19.4181210  81.0514490
  36.9964970  19.6819580  81.6701890  36.0002910  18.5782080  81.3852500
  40.5079430  20.4648570  80.1387080  41.0157650  20.9629540  80.7792100
  41.0392670  19.6883770  79.9626440  45.1786620  25.2166440  75.9040400
  44.5603890  25.6815890  75.3403120  45.6909870  25.9093920  76.3209910
  40.0418380  24.7442310  82.5824000  39.7087760  25.3711230  83.2245070
  40.2185060  25.2704190  81.8025670  48.5552290  18.5587390  80.0500340
  47.8507860  18.8472280  80.6303450  48.9164450  19.3687500  79.6899900
  38.4730860  16.8157090  82.4120950  38.8147670  17.6599140  82.1174820
  37.5346670  16.9640830  82.5286290  34.5469820  25.9022970  73.2780030
  34.1697800  26.3910070  72.5464930  34.8042890  26.5748250  73.9086560
  50.1715070  28.1762520  82.3127820  49.4878590  28.8461630  82.3044490
  50.7109360  28.3743170  81.5472680  51.6239210  18.0042180  80.4409550
  50.6764120  18.0381160  80.5724980  51.9489200  18.8181130  80.8258910
  42.1558750  14.3039360  78.7365540  42.4633730  13.7486250  78.0201040
  41.2259450  14.4383820  78.5538530  47.7073810  30.0206650  81.0273000
  47.7200970  29.6168940  80.1595260  47.1549030  30.7953940  80.9234430
  49.0019230  26.7422870  76.1163170  48.8915560  25.7997200  76.2412590
  48.9987480  27.1038510  77.0025930  47.1059250  24.9236490  82.3555610
  47.5228040  24.7096600  81.5209070  47.8299070  25.1809280  82.9264230
  44.5439510  22.3688190  75.4725660  43.6168790  22.3025570  75.7014130
  44.6964330  23.3068320  75.3580900  44.5308590  18.6405190  72.4692820
  43.5912260  18.8019150  72.5545280  44.8491850  19.3590870  71.9228810
  51.0521350  23.3223710  82.4471850  50.2239980  23.3916800  81.9721980
  51.6471830  23.9078020  81.9787680  48.5736800  23.9308490  75.9760910
  47.9549220  23.5928040  75.3287210  48.5561250  23.2868250  76.6840100
  40.1496150  22.8952930  78.2545390  39.7453150  22.1830180  77.7591290
  40.2359270  22.5506170  79.1433430  40.6177850  26.5820490  80.4184600
  40.3206140  25.9765960  79.7392380  41.5677670  26.6197800  80.3073960
  38.8624770  19.6696140  82.0344430  39.4139360  19.7791480  81.2597680
  39.3768280  20.0433740  82.7499660  46.7501500  23.1695300  72.9833660
  47.1894780  22.3317730  72.8371480  47.4629920  23.8024700  73.0697800
  44.8596880  28.1091370  76.9514900  45.2992790  28.8515700  76.5370290
  44.7983770  28.3517940  77.8753860  50.3318640  14.4238110  71.2974700
  50.0191300  14.5164940  72.1973770  51.0931110  15.0019140  71.2472130
  36.8500780  21.7897910  75.7552040  36.7298380  22.5160000  75.1433310
  36.5401670  21.0200820  75.2779950  34.4886150  24.9613050  81.5620680
  34.5666570  25.0961820  80.6176400  35.1027830  24.2528940  81.7548800
  35.7333780  26.6613240  77.9726860  35.3261860  26.8027830  77.1180460
  36.6246790  26.3773400  77.7698070  47.5267060  31.0960490  74.3077910
  47.3668200  30.8063430  75.2059740  47.3613770  30.3200620  73.7723140
  40.0055440  30.8759020  76.0849530  39.8297920  29.9594560  75.8717330
  39.1511180  31.2346310  76.3247330  47.2293190  28.6048050  72.8675910
  46.5358350  28.6025340  72.2078190  47.9716050  28.1807370  72.4370080
  46.7943120  30.2310760  76.9424400  47.2500070  29.4500140  77.2563020
  47.1335640  30.9417580  77.4865580  39.3164440  15.1332980  79.1375710
  38.8732590  15.9142520  78.8060230  39.8749430  15.4562870  79.8446650
  42.4323260  14.7543680  74.0181540  41.8077440  14.7503550  74.7434850
  42.3453380  13.8874640  73.6217510  41.3540340  15.6780310  80.9965310
  41.6512670  16.5843140  80.9157330  41.9025900  15.1899090  80.3824880
  39.1078660  20.2566550  76.8656960  38.8819580  20.0403720  77.7703580
  38.3271190  20.6895010  76.5202930  46.3376420  20.2629920  75.4647610
  45.7385310  20.9865720  75.2811230  46.8856030  20.2006700  74.6824060
  44.9441290  18.8993460  77.4950890  45.3370860  19.2165660  76.6819580
  45.3058140  18.0205340  77.6095410  33.9805460  15.4894260  79.7181090
  33.6918510  16.0597120  80.4306070  34.7251220  15.0098710  80.0812320
  34.1675690  19.4314380  70.9283810  34.0850360  20.3745140  71.0698800
  33.8158750  19.2889290  70.0496160  45.5296430  21.4899210  81.5901670
  44.7977550  21.9986020  81.9391770  45.1320770  20.6729190  81.2890450
  41.9673820  18.1653410  79.9954160  41.9709880  17.7243360  79.1458700
  42.8624940  18.4870740  80.1025980  37.8176200  18.0479900  78.9548370
  37.4776250  18.5255130  79.7115420  37.0553520  17.5945020  78.5949470
  42.0293970  19.1665490  72.9860920  42.1506790  19.1251970  73.9346740
  41.6442480  20.0289640  72.8307650  45.9922340  16.9432890  81.0024610
  46.0095080  17.3941540  81.8466460  45.7437920  16.0438530  81.2158050
  41.0415470  21.4766630  72.3844220  40.4732370  21.0284880  71.7580130
  41.7504470  21.8359410  71.8509370  42.2681790  22.2255190  81.7419570
  42.6351920  21.7513760  82.4880910  42.0786850  23.0996760  82.0827910
  35.1322280  16.9698880  77.8713040  34.8469200  16.6054550  78.7091660
  35.0701140  16.2379340  77.2576180  38.5862950  25.4724820  74.6570630
  37.8125210  24.9322440  74.4969350  39.3157580  24.9531430  74.3188390
  49.3450930  24.4690180  80.4497020  50.0650050  24.9645470  80.0593130
  49.1432750  23.7908070  79.8050890  44.8060870  15.8628140  74.5926410
  43.9925480  15.3641310  74.5171720  44.6122820  16.7026390  74.1762760
  47.5209260  20.2347790  72.8888570  48.4088880  20.5465020  72.7139910
  47.4914350  19.3620040  72.4969150  38.6300350  25.1405200  78.2949440
  39.1479020  24.3373460  78.2406330  38.1784370  25.0784340  79.1366270
  43.5169850  26.4071480  73.5676740  43.8585550  27.1513710  73.0720060
  42.6882560  26.7202600  73.9301570  49.7923530  21.5459630  72.3568430
  49.7087250  21.9773850  71.5064870  50.5117720  22.0057980  72.7895250
  50.8210780  28.4001890  75.0850560  50.1786940  27.7457510  75.3594280
  50.4341440  28.8056980  74.3091230  46.3997260  25.7287320  78.9322250
  46.7521080  25.1315450  78.2723620  45.5159590  25.4031550  79.1030500
  42.4860540  26.4885010  76.3392660  43.1731670  27.0354220  76.7200250
  41.6992960  27.0325740  76.3742270  34.6252940  22.1057830  71.8309740
  35.4947790  22.3882630  72.1145660  34.1343260  22.9193700  71.7158550
  41.7887750  23.4931040  75.9518020  42.2450530  24.3036290  76.1778210
  41.4375960  23.1754180  76.7836510  37.6899530  13.8368690  76.4240540
  37.5614160  13.8286590  77.3725460  36.8661550  14.1751780  76.0731550
  45.3652440  27.0069730  81.8987770  46.0074670  26.3062890  82.0119940
  45.8901790  27.7868170  81.7184660  49.2108160  27.2918350  71.6226910
  48.9845740  26.5748790  72.2151550  48.8204360  27.0430790  70.7848660
  34.9924190  31.3185210  72.3971370  35.3521830  31.9174550  71.7428640
  34.8516530  31.8645100  73.1706400  48.7924410  25.2090290  73.2841070
  48.5046110  25.6702980  74.0718950  49.5876580  24.7488060  73.5525290
  41.0092810  28.7016410  73.2145040  41.0002910  29.4346100  72.5989550
  40.0891170  28.4547990  73.3072000  36.6099450  23.9231300  73.9591800
  36.0027400  24.6630200  73.9687100  37.0848800  24.0130660  73.1330000
  49.5494270  17.0439060  74.4436250  48.9207430  17.1484730  73.7294480
  49.0546190  17.2635840  75.2330130  43.9952410  28.7644650  71.8770230
  44.0964390  28.5608640  70.9472210  43.0954150  28.5102930  72.0818010
  41.5178300  19.3225010  75.8594130  40.8094450  19.7911350  76.3007740
  41.8022780  18.6647020  76.4939320  45.5493730  16.0475670  77.2989920
  45.4261510  16.0661800  76.3499430  46.4978290  16.0954610  77.4188320
  42.6370520  31.2830970  76.5717900  42.8912020  31.2452360  75.6497270
  41.6883000  31.1564300  76.5646150  39.7213320  17.6310090  73.2344840
  40.5703850  18.0680240  73.1685030  39.3544590  17.9430350  74.0616900
  48.6423100  22.2022850  78.1476410  47.7013240  22.2173080  78.3224100
  48.9567170  21.4158810  78.5936710  38.6204740  23.8842450  71.7080370
  39.3868010  23.7723810  72.2705800  38.6979430  23.1880420  71.0557140
  37.3151500  21.3167520  72.3913260  37.3955090  20.3695030  72.5030660
  38.2071250  21.6474400  72.4973920  50.6448680  29.3731700  79.8230670
  50.7696100  30.1962870  80.2954480  51.5114240  29.1622430  79.4754820
  38.1166210  31.4662910  79.4947800  38.8528690  30.9178370  79.7656370
  38.5007130  32.3318920  79.3553790  35.0011690  27.5336480  75.3689310
  34.0751470  27.7757620  75.3594720  35.4668120  28.3610740  75.2474060
  41.2268520  30.6393220  71.3173370  42.0197130  30.9282050  70.8655160
  40.7072870  30.2085390  70.6385850  50.2798690  29.8663350  72.7410110
  49.9940200  29.4528490  71.9264290  50.0818240  30.7951060  72.6210630
  41.7445920  25.8596630  71.1815720  41.6396560  25.2448980  71.9077100
  41.5770140  25.3362520  70.3978730  44.9848650  24.9216660  71.7857710
  44.4358750  25.3685960  72.4300450  45.6067910  24.4165910  72.3095380
  40.6523770  23.8807580  73.6823010  41.0740190  23.7147450  74.5254400
  40.7774610  23.0707810  73.1878150  43.1651410  22.9045190  70.9300110
  43.6857070  22.1894210  70.5641260  43.8119810  23.5431060  71.2300620
  39.5482670  19.9540810  70.6281170  39.3471730  19.0908170  70.9894510
  39.3774720  19.8674170  69.6902770  47.0270980  14.7649040  73.1568050
  47.3073270  13.9216940  73.5127470  46.2536710  14.9972150  73.6706800
  38.3465470  17.0541430  70.6159050  38.6491370  17.0608860  69.7078200
  39.0860060  16.7039290  71.1126710  41.5650400  15.9976050  71.6015250
  41.2172400  15.3200040  71.0217700  41.7663170  15.5365560  72.4158640
  43.7299440  30.9856800  73.2201850  44.6250230  31.3241770  73.2420610
  43.7617070  30.2636210  72.5926130  37.3695600  26.3583850  71.4488850
  37.8070470  26.9013520  72.1046430  37.8543330  25.5330800  71.4585190
  34.5841400  29.1472880  78.9009110  34.9144410  28.2793940  78.6687750
  35.0132400  29.3531400  79.7314070  39.1803320  27.4781890  76.5611080
  38.8798860  27.3546860  77.4614990  39.0740810  26.6190480  76.1526810
  35.0731610  30.0143470  81.6390740  34.6362600  30.1944270  82.4714890
  35.6409290  30.7718090  81.4972460  51.9495240  27.2578290  71.2637760
  51.1188200  27.3254940  71.7344990  52.1267070  28.1482410  70.9604620
  51.4051700  24.0025770  73.7671960  52.1670610  24.5722420  73.8731650
  51.4206070  23.4352970  74.5380270  34.9056040  22.5263700  77.9979620
  34.2504880  22.2575340  77.3539320  35.7433990  22.4168180  77.5481600
  52.4111670  24.8575870  78.6113890  52.7820500  24.0743190  78.2049860
  53.0513600  25.5464970  78.4331190  51.4570870  24.2960140  70.9244480
  51.7319710  25.2039020  70.7963700  51.2681610  24.2322670  71.8606470
  47.8546480  17.3204990  72.2198110  48.2731360  17.1335970  71.3794770
  47.5482540  16.4684040  72.5301040  51.3536210  22.2329130  75.9173910
  50.9779810  21.4657060  75.4855200  50.6239330  22.6151830  76.4048840
  34.1194120  19.7362630  73.9404950  33.2158200  19.9992830  73.7656610
  34.6034740  20.0073800  73.1604910  50.6287170  20.4586620  79.2181150
  51.1524650  19.9649270  78.5871320  51.2146590  20.5936980  79.9628720
  50.8076890  20.5426490  82.7400700  49.8579600  20.5090030  82.8545690
  50.9889900  21.4526600  82.5050470  36.6621330  18.7928170  71.8499330
  37.3713030  18.3711390  71.3646610  35.9461270  18.8603400  71.2182680
  36.3095490  14.8467500  70.8901980  37.0323620  15.3876440  71.2083200
  36.5820010  14.5730920  70.0143520  50.1187140  19.7159970  75.1573560
  50.6146260  19.4830840  75.9422440  49.9203210  18.8771810  74.7411200
  35.9987680  14.0973690  80.7924600  36.6463870  13.5471070  80.3519760
  36.4189520  14.3516840  81.6140410  51.5474300  18.3520920  77.6911240
  51.4373580  18.1976960  78.6293510  52.3081890  17.8241860  77.4486650
  52.4364570  16.1828840  70.9317380  53.3613880  16.0510020  70.7235670
  52.4140360  16.2621660  71.8853830  52.5103060  16.9539500  73.5574090
  51.7154560  16.8884620  74.0867000  52.7146340  17.8890140  73.5459440
  49.4521480  30.9931050  77.5512480  50.0480550  30.6715620  76.8746900
  49.7099630  30.5202870  78.3425750  50.0033690  31.6426350  81.3810210
  49.5436660  32.3942160  81.0068230  49.3746150  30.9232820  81.3225010
  40.4329410  29.9514590  80.5558340  40.9494430  29.3401950  80.0306600
  41.0826790  30.4543370  81.0469350  43.1724910  30.8423080  81.3827320
  43.4602720  30.5877380  80.5060330  43.6848130  30.2900440  81.9732890
  44.3901920  14.5813280  81.9623830  43.6073710  15.0558780  82.2420590
  44.0964850  13.6768110  81.8537010  48.9422990  15.2836380  80.0072920
  49.3831080  15.2281480  79.1594520  48.6730580  16.1994390  80.0783100
  50.8061560  14.9151620  78.0181740  50.7449960  13.9712840  77.8712760
  51.5853590  15.0231710  78.5635200  35.1114310  31.0543980  76.9805690
  34.9436350  30.4214660  77.6787580  34.2448820  31.2603380  76.6299880
  35.7342330  14.8860760  74.4837550  36.4921690  14.9989640  73.9101580
  35.2719500  15.7229960  74.4380980  42.2756140  17.0000030  77.4739860
  41.4630650  16.6256920  77.1335740  42.7797780  16.2445110  77.7761050
  46.7781120  13.6642480  78.7122930  47.3810490  14.2362690  79.1871450
  46.0374110  14.2281920  78.4896830  49.9215720  14.0664040  73.9863210
  50.1166350  14.9647490  74.2530640  49.1345590  13.8351120  74.4796160
  36.7177010  29.7477210  74.4255830  36.1924630  30.1285240  73.7217790
  36.6421590  30.3727980  75.1465540  38.1067480  15.4124810  73.0239520
  38.6360240  14.6254610  72.8947470  38.7395800  16.0916000  73.2575050
  40.3005320  15.1499950  76.0784910  39.6708060  14.4487260  76.2455040
  39.7610460  15.9104080  75.8618070  51.4742330  31.3064750  75.7469770
  51.6494520  30.6202490  75.1030690  50.7763900  31.8311800  75.3546440
  39.3169980  31.6959590  73.3005080  40.0488800  31.4118870  72.7528970
  39.5763650  31.4572870  74.1904460  38.4784770  27.8124320  73.3051410
  37.8493650  28.2809420  73.8537240  38.5932600  26.9673540  73.7397600
  45.9334490  21.8629980  59.4552610  45.8528540  20.9484590  59.1844320
  45.5198910  22.3597050  58.7492320  44.0652530  23.6409000  61.3361880
  43.2894630  23.1609440  61.6260450  44.7165460  22.9614650  61.1618040
  38.0818360  23.9528810  62.2137640  37.2503240  23.6977520  62.6134150
  38.6899340  24.0239580  62.9495560  48.0859960  28.0469190  60.1161010
  47.6241490  27.2756430  60.4448180  48.8985510  28.0735260  60.6213460
  38.0619620  27.9868900  62.4095660  38.3647660  27.0966640  62.2305880
  38.8063210  28.5439120  62.1817910  36.4910310  18.9130700  55.9980030
  35.6027010  19.2546670  55.8959910  36.7751500  18.7131020  55.1060860
  34.4543320  21.5136350  61.8819730  35.0259430  20.7458550  61.8823370
  34.4544860  21.8125110  60.9726340  43.5061520  26.3166190  61.3432040
  43.4369800  25.3756130  61.1821170  44.2681380  26.4067600  61.9154610
  35.6968190  16.9220710  63.6688660  35.5171030  16.0246460  63.9491420
  35.2948270  17.4692580  64.3435610  44.5366690  19.1236570  61.5700970
  44.9131510  18.2508450  61.4574640  44.4386200  19.4595270  60.6791410
  38.6671700  17.4962200  57.0318410  38.7738450  18.3965930  57.3387170
  37.7564060  17.4480170  56.7413060  48.3190810  16.6187010  58.5029310
  49.1400430  16.1283580  58.5454790  48.3524890  17.2084670  59.2561150
  36.3154860  19.4181210  62.2771000  36.9964970  19.6819580  62.8958400
  36.0002910  18.5782080  62.6109010  40.5079430  20.4648570  61.3643590
  41.0157650  20.9629540  62.0048610  41.0392670  19.6883770  61.1882950
  52.6090360  18.6353760  65.0672940  51.9042530  19.0235470  64.5488050
  52.8748280  19.3304050  65.6693870  38.7915530  15.1047130  65.6307010
  38.7933970  15.6219520  64.8252910  37.9619840  14.6277310  65.6076940
  45.1786620  25.2166440  57.1296910  44.5603890  25.6815890  56.5659630
  45.6909870  25.9093920  57.5466420  40.0418380  24.7442310  63.8080510
  39.7087760  25.3711230  64.4501580  40.2185060  25.2704190  63.0282180
  48.5552290  18.5587390  61.2756850  47.8507860  18.8472280  61.8559960
  48.9164450  19.3687500  60.9156410  38.4730860  16.8157090  63.6377460
  38.8147670  17.6599140  63.3431330  37.5346670  16.9640830  63.7542800
  39.2537480  26.7123110  65.6229690  39.8711480  27.3874190  65.3414140
  38.3930600  27.1211090  65.5317190  34.5469820  25.9022970  54.5036540
  34.1697800  26.3910070  53.7721440  34.8042890  26.5748250  55.1343070
  50.1715070  28.1762520  63.5384330  49.4878590  28.8461630  63.5301000
  50.7109360  28.3743170  62.7729190  51.6239210  18.0042180  61.6666060
  50.6764120  18.0381160  61.7981490  51.9489200  18.8181130  62.0515420
  42.1558750  14.3039360  59.9622050  42.4633730  13.7486250  59.2457550
  41.2259450  14.4383820  59.7795040  47.7073810  30.0206650  62.2529510
  47.7200970  29.6168940  61.3851770  47.1549030  30.7953940  62.1490940
  49.0019230  26.7422870  57.3419680  48.8915560  25.7997200  57.4669100
  48.9987480  27.1038510  58.2282440  47.1059250  24.9236490  63.5812120
  47.5228040  24.7096600  62.7465580  47.8299070  25.1809280  64.1520740
  44.5439510  22.3688190  56.6982170  43.6168790  22.3025570  56.9270640
  44.6964330  23.3068320  56.5837410  44.5308590  18.6405190  53.6949330
  43.5912260  18.8019150  53.7801790  44.8491850  19.3590870  53.1485320
  51.0521350  23.3223710  63.6728360  50.2239980  23.3916800  63.1978490
  51.6471830  23.9078020  63.2044190  48.5736800  23.9308490  57.2017420
  47.9549220  23.5928040  56.5543720  48.5561250  23.2868250  57.9096610
  48.0163360  20.1093030  64.6183230  47.6034540  20.9346740  64.8723220
  47.2839310  19.5238070  64.4259590  40.1496150  22.8952930  59.4801900
  39.7453150  22.1830180  58.9847800  40.2359270  22.5506170  60.3689940
  40.6177850  26.5820490  61.6441110  40.3206140  25.9765960  60.9648890
  41.5677670  26.6197800  61.5330470  38.8624770  19.6696140  63.2600940
  39.4139360  19.7791480  62.4854190  39.3768280  20.0433740  63.9756170
  48.7063460  30.1552360  65.3064210  48.2294020  30.9624550  65.1136820
  48.0225250  29.5030690  65.4590420  39.7096280  26.3202180  68.2948910
  38.8124810  26.5442150  68.5422310  39.7349150  26.4437120  67.3460310
  46.7501500  23.1695300  54.2090170  47.1894780  22.3317730  54.0627990
  47.4629920  23.8024700  54.2954310  38.5367500  23.1915500  66.8706280
  38.3975270  24.0638300  67.2393680  37.6548860  22.8488310  66.7254220
  44.8596880  28.1091370  58.1771410  45.2992790  28.8515700  57.7626800
  44.7983770  28.3517940  59.1010370  40.3347850  29.1337200  69.0791430
  40.3063280  29.5380150  68.2119860  40.1712820  28.2047560  68.9163030
  50.3318640  14.4238110  52.5231210  50.0191300  14.5164940  53.4230280
  51.0931110  15.0019140  52.4728640  36.8500780  21.7897910  56.9808550
  36.7298380  22.5160000  56.3689820  36.5401670  21.0200820  56.5036460
  52.2862670  29.9164300  70.3755600  52.7622390  30.3947190  71.0544680
  52.9069830  29.8481790  69.6501100  34.4886150  24.9613050  62.7877190
  34.5666570  25.0961820  61.8432910  35.1027830  24.2528940  62.9805310
  35.7333780  26.6613240  59.1983370  35.3261860  26.8027830  58.3436970
  36.6246790  26.3773400  58.9954580  51.6895920  27.1077150  67.5355610
  51.8158980  26.8689030  66.6172790  51.7317300  26.2761690  68.0077690
  45.5512660  30.8105150  66.1050420  46.0657330  30.7213160  66.9072850
  44.7081740  31.1564850  66.3978330  46.7943120  30.2310760  58.1680910
  47.2500070  29.4500140  58.4819530  47.1335640  30.9417580  58.7122090
  51.5419930  19.1609610  68.5005350  50.9264200  19.6689280  67.9720810
  51.2216350  18.2607940  68.4431290  34.5445670  26.0027220  65.3271650
  34.7076710  25.5332580  64.5091020  35.0098120  25.4950780  65.9920490
  39.3164440  15.1332980  60.3632220  38.8732590  15.9142520  60.0316740
  39.8749430  15.4562870  61.0703160  43.6034250  18.0001500  65.9667540
  43.1413620  18.2084520  66.7787480  43.2012360  17.1860850  65.6638210
  48.6038760  19.2210450  67.0964200  47.7532350  18.9216200  67.4173270
  48.4440550  19.4652460  66.1848020  45.6988470  20.7212200  69.1962990
  46.0241880  19.8875950  68.8565220  46.4868800  21.2440720  69.3441320
  42.4323260  14.7543680  55.2438050  41.8077440  14.7503550  55.9691360
  42.3453380  13.8874640  54.8474020  41.3540340  15.6780310  62.2221820
  41.6512670  16.5843140  62.1413840  41.9025900  15.1899090  61.6081390
  39.1078660  20.2566550  58.0913470  38.8819580  20.0403720  58.9960090
  38.3271190  20.6895010  57.7459440  46.3376420  20.2629920  56.6904120
  45.7385310  20.9865720  56.5067740  46.8856030  20.2006700  55.9080570
  41.5477870  21.1552130  68.7573740  41.4521470  20.2146860  68.6074140
  42.3909850  21.3767200  68.3621810  44.9441290  18.8993460  58.7207400
  45.3370860  19.2165660  57.9076090  45.3058140  18.0205340  58.8351920
  36.6788410  17.5665800  66.9107520  36.2851800  18.4141010  67.1180300
  35.9906810  16.9292170  67.1016160  43.2533460  17.6500770  69.9804260
  42.5631780  17.4572970  70.6150350  43.9965760  17.9335410  70.5128560
  33.9805460  15.4894260  60.9437600  33.6918510  16.0597120  61.6562580
  34.7251220  15.0098710  61.3068830  34.1675690  19.4314380  52.1540320
  34.0850360  20.3745140  52.2955310  33.8158750  19.2889290  51.2752670
  45.5296430  21.4899210  62.8158180  44.7977550  21.9986020  63.1648280
  45.1320770  20.6729190  62.5146960  41.9673820  18.1653410  61.2210670
  41.9709880  17.7243360  60.3715210  42.8624940  18.4870740  61.3282490
  37.8176200  18.0479900  60.1804880  37.4776250  18.5255130  60.9371930
  37.0553520  17.5945020  59.8205980  42.0293970  19.1665490  54.2117430
  42.1506790  19.1251970  55.1603250  41.6442480  20.0289640  54.0564160
  45.9922340  16.9432890  62.2281120  46.0095080  17.3941540  63.0722970
  45.7437920  16.0438530  62.4414560  41.0415470  21.4766630  53.6100730
  40.4732370  21.0284880  52.9836640  41.7504470  21.8359410  53.0765880
  49.4193090  14.3565070  68.0667500  49.7438860  13.6254730  68.5925480
  49.4549600  14.0378710  67.1648490  36.1184650  25.3778650  67.4867460
  35.7339440  24.7372320  68.0850420  36.4296840  26.0814770  68.0562190
  42.2681790  22.2255190  62.9676080  42.6351920  21.7513760  63.7137420
  42.0786850  23.0996760  63.3084420  35.1322280  16.9698880  59.0969550
  34.8469200  16.6054550  59.9348170  35.0701140  16.2379340  58.4832690
  40.0581160  21.2663830  65.2860290  39.7538230  22.1455810  65.5110650
  41.0127620  21.3263620  65.3217730  38.5862950  25.4724820  55.8827140
  37.8125210  24.9322440  55.7225860  39.3157580  24.9531430  55.5444900
  49.3450930  24.4690180  61.6753530  50.0650050  24.9645470  61.2849640
  49.1432750  23.7908070  61.0307400  44.8060870  15.8628140  55.8182920
  43.9925480  15.3641310  55.7428230  44.6122820  16.7026390  55.4019270
  44.7269730  24.5399240  67.5622530  44.6607040  23.6194910  67.3080120
  44.0974870  24.6374680  68.2767170  47.5209260  20.2347790  54.1145080
  48.4088880  20.5465020  53.9396420  47.4914350  19.3620040  53.7225660
  38.6300350  25.1405200  59.5205950  39.1479020  24.3373460  59.4662840
  38.1784370  25.0784340  60.3622780  43.5169850  26.4071480  54.7933250
  43.8585550  27.1513710  54.2976570  42.6882560  26.7202600  55.1558080
  36.1144890  22.1066570  66.4331650  35.7559830  22.7720420  67.0204990
  35.8199450  21.2750120  66.8044270  39.3158010  22.5650810  69.3171200
  39.0158150  22.7107990  68.4199020  40.0869250  22.0056100  69.2244590
  44.6586460  27.3619810  67.3126330  44.6731000  26.4300770  67.0945240
  43.9511560  27.4479570  67.9516100  50.8697670  24.0027150  66.6594910
  50.1445860  24.5955930  66.4624300  51.3973130  23.9950690  65.8608280
  46.3997260  25.7287320  60.1578760  46.7521080  25.1315450  59.4980130
  45.5159590  25.4031550  60.3287010  42.4860540  26.4885010  57.5649170
  43.1731670  27.0354220  57.9456760  41.6992960  27.0325740  57.5998780
  34.6252940  22.1057830  53.0566250  35.4947790  22.3882630  53.3402170
  34.1343260  22.9193700  52.9415060  41.7887750  23.4931040  57.1774530
  42.2450530  24.3036290  57.4034720  41.4375960  23.1754180  58.0093020
  44.0920360  29.0037380  64.4066830  44.7362580  29.2096760  65.0840250
  44.4549800  28.2425780  63.9537680  37.6899530  13.8368690  57.6497050
  37.5614160  13.8286590  58.5981970  36.8661550  14.1751780  57.2988060
  45.3652440  27.0069730  63.1244280  46.0074670  26.3062890  63.2376450
  45.8901790  27.7868170  62.9441170  47.1390060  27.8064630  66.3280340
  47.4746300  28.3931320  67.0058260  46.2190400  27.6757340  66.5578130
  34.6893460  15.5959810  67.1103750  33.9751980  15.7956730  67.7156360
  35.1088500  14.8199380  67.4818550  48.7924410  25.2090290  54.5097580
  48.5046110  25.6702980  55.2975460  49.5876580  24.7488060  54.7781800
  34.9766050  29.5840070  68.0970280  35.0857170  28.6434810  67.9565670
  34.3246610  29.8494820  67.4484010  42.9678640  27.8555960  69.4968400
  42.6475510  27.1365200  70.0414090  42.2937000  28.5311030  69.5704460
  36.6099450  23.9231300  55.1848310  36.0027400  24.6630200  55.1943610
  37.0848800  24.0130660  54.3586510  46.1832240  18.0882120  64.8605200
  46.5513060  17.2677330  65.1884770  45.3230440  18.1484010  65.2760850
  49.5494270  17.0439060  55.6692760  48.9207430  17.1484730  54.9550990
  49.0546190  17.2635840  56.4586640  41.5178300  19.3225010  57.0850640
  40.8094450  19.7911350  57.5264250  41.8022780  18.6647020  57.7195830
  43.1434230  20.7421710  65.0843170  43.6419480  21.2167530  65.7495020
  43.2857180  19.8185230  65.2913200  45.5493730  16.0475670  58.5246430
  45.4261510  16.0661800  57.5755940  46.4978290  16.0954610  58.6444830
  39.7213320  17.6310090  54.4601350  40.5703850  18.0680240  54.3941540
  39.3544590  17.9430350  55.2873410  50.3501090  16.9589670  65.9271560
  49.8474690  17.6995070  66.2665370  51.1657750  17.3473670  65.6108350
  48.6423100  22.2022850  59.3732920  47.7013240  22.2173080  59.5480610
  48.9567170  21.4158810  59.8193220  38.6204740  23.8842450  52.9336880
  39.3868010  23.7723810  53.4962310  38.6979430  23.1880420  52.2813650
  37.3151500  21.3167520  53.6169770  37.3955090  20.3695030  53.7287170
  38.2071250  21.6474400  53.7230430  38.1166210  31.4662910  60.7204310
  38.8528690  30.9178370  60.9912880  38.5007130  32.3318920  60.5810300
  35.0011690  27.5336480  56.5945820  34.0751470  27.7757620  56.5851230
  35.4668120  28.3610740  56.4730570  37.1224490  30.6508980  69.9089890
  37.9237220  30.9721030  70.3225290  36.6076310  30.2904560  70.6309800
  45.9589120  26.7588850  69.8565300  45.3527280  26.7820450  69.1161050
  45.6543230  26.0271890  70.3932550  47.3889490  30.4869140  68.4674710
  48.3411240  30.4027160  68.4174950  47.2417710  31.1510850  69.1408500
  34.8422300  23.1382440  68.8525940  35.3461320  22.5589720  69.4242170
  34.1029720  23.4222670  69.3902310  41.7445920  25.8596630  52.4072230
  41.6396560  25.2448980  53.1333610  41.5770140  25.3362520  51.6235240
  41.8960240  24.5453430  68.3861460  41.1305910  25.1138430  68.3016130
  42.0776200  24.2529640  67.4929690  44.9848650  24.9216660  53.0114220
  44.4358750  25.3685960  53.6556960  45.6067910  24.4165910  53.5351890
  49.0383590  26.2758760  68.9436480  49.7793060  26.6134520  68.4403940
  48.2756270  26.4450820  68.3906250  36.8745380  21.2812030  69.7476010
  36.9150720  20.9825900  70.6561240  37.7290880  21.6819640  69.5883530
  40.6523770  23.8807580  54.9079520  41.0740190  23.7147450  55.7510910
  40.7774610  23.0707810  54.4134660  38.8151190  19.8604130  67.7150500
  38.2847650  19.3695080  67.0873840  39.4839260  20.2888330  67.1808430
  43.1651410  22.9045190  52.1556620  43.6857070  22.1894210  51.7897770
  43.8119810  23.5431060  52.4557130  47.7129250  24.3273590  67.4791690
  48.1270270  24.4818670  68.3282110  46.7780250  24.4528810  67.6417470
  48.1851420  21.6669750  69.4830840  48.7672190  20.9122070  69.3951320
  48.3613190  22.1977190  68.7062320  39.3023490  16.8266500  67.7947790
  39.2080360  16.2087250  67.0698660  38.7220880  17.5532790  67.5677700
  42.0684930  15.3839740  64.8275180  41.6202230  15.4064000  63.9820730
  41.4350130  14.9858760  65.4245480  42.4744480  24.2794070  65.4487620
  42.8932590  25.1226800  65.2763860  41.5553110  24.4166110  65.2194400
  44.8108380  22.0110250  66.8325460  44.9304590  21.4151390  67.5720300
  45.6702380  22.0479940  66.4126760  47.1496280  22.5647440  65.4087970
  46.6231500  23.0890060  64.8053110  47.4927620  23.1974830  66.0397700
  39.5482670  19.9540810  51.8537680  39.3471730  19.0908170  52.2151020
  39.3774720  19.8674170  50.9159280  40.3251900  30.5847080  66.5645350
  39.7872990  31.3093140  66.2454050  40.5785860  30.1077420  65.7742690
  41.5777150  18.5531600  68.0901280  42.1676840  18.2447450  68.7779100
  40.7597390  18.0811350  68.2461180  46.3970580  18.1697410  68.3234300
  45.7086100  17.5078950  68.2584290  47.1176600  17.7235680  68.7682760
  47.0270980  14.7649040  54.3824560  47.3073270  13.9216940  54.7383980
  46.2536710  14.9972150  54.8963310  38.3465470  17.0541430  51.8415560
  38.6491370  17.0608860  50.9334710  39.0860060  16.7039290  52.3383220
  43.1814110  31.8198290  66.8232000  43.1072810  32.7233430  67.1304370
  42.2792950  31.5010190  66.7954070  41.5650400  15.9976050  52.8271760
  41.2172400  15.3200040  52.2474210  41.7663170  15.5365560  53.6415150
  37.3695600  26.3583850  52.6745360  37.8070470  26.9013520  53.3302940
  37.8543330  25.5330800  52.6841700  34.5841400  29.1472880  60.1265620
  34.9144410  28.2793940  59.8944260  35.0132400  29.3531400  60.9570580
  39.1803320  27.4781890  57.7867590  38.8798860  27.3546860  58.6871500
  39.0740810  26.6190480  57.3783320  35.0731610  30.0143470  62.8647250
  34.6362600  30.1944270  63.6971400  35.6409290  30.7718090  62.7228970
  50.7093790  29.5160470  67.1524560  50.1095780  29.5753030  66.4088480
  50.8387690  28.5765450  67.2821410  34.9056040  22.5263700  59.2236130
  34.2504880  22.2575340  58.5795830  35.7433990  22.4168180  58.7738110
  52.4111670  24.8575870  59.8370400  52.7820500  24.0743190  59.4306370
  53.0513600  25.5464970  59.6587700  49.3945430  26.2412450  65.2500720
  48.5805270  26.6709610  65.5126510  49.8019630  26.8530860  64.6369770
  47.8546480  17.3204990  53.4454620  48.2731360  17.1335970  52.6051280
  47.5482540  16.4684040  53.7557550  51.3536210  22.2329130  57.1430420
  50.9779810  21.4657060  56.7111710  50.6239330  22.6151830  57.6305350
  35.9431970  22.9116270  63.7639470  36.3105010  22.8243670  64.6435490
  35.3742790  22.1482820  63.6646330  50.7435830  21.3800650  66.7769940
  50.5121920  21.1513400  65.8767890  51.0040380  22.3000200  66.7314830
  35.4947970  19.8225360  67.6697890  34.6004020  19.7892120  68.0091600
  36.0345520  20.0212150  68.4349140  49.1823900  16.6057080  69.5549640
  50.0594080  16.6140480  69.9383640  49.1944740  15.8687920  68.9441990
  34.1194120  19.7362630  55.1661460  33.2158200  19.9992830  54.9913120
  34.6034740  20.0073800  54.3861420  50.6287170  20.4586620  60.4437660
  51.1524650  19.9649270  59.8127830  51.2146590  20.5936980  61.1885230
  50.8076890  20.5426490  63.9657210  49.8579600  20.5090030  64.0802200
  50.9889900  21.4526600  63.7306980  36.6621330  18.7928170  53.0755840
  37.3713030  18.3711390  52.5903120  35.9461270  18.8603400  52.4439190
  36.3095490  14.8467500  52.1158490  37.0323620  15.3876440  52.4339710
  36.5820010  14.5730920  51.2400030  50.1187140  19.7159970  56.3830070
  50.6146260  19.4830840  57.1678950  49.9203210  18.8771810  55.9667710
  35.9987680  14.0973690  62.0181110  36.6463870  13.5471070  61.5776270
  36.4189520  14.3516840  62.8396920  51.5474300  18.3520920  58.9167750
  51.4373580  18.1976960  59.8550020  52.3081890  17.8241860  58.6743160
  49.8940020  14.2915050  65.3750750  50.5312240  14.9049190  65.7409940
  50.0414910  14.3275710  64.4299980  52.4364570  16.1828840  52.1573890
  53.3613880  16.0510020  51.9492180  52.4140360  16.2621660  53.1110340
  52.5103060  16.9539500  54.7830600  51.7154560  16.8884620  55.3123510
  52.7146340  17.8890140  54.7715950  35.7519680  14.2529360  64.7606430
  35.4034500  14.7093180  65.5264610  35.4207380  13.3586490  64.8428860
  37.3584050  27.4248960  68.9259620  37.3153680  27.0541870  69.8074080
  37.4895060  28.3626530  69.0661440  41.0590080  28.9808550  64.5269340
  40.8181440  29.2483110  63.6399860  41.9992720  29.1514280  64.5820200
  43.2644500  15.4441240  68.2825850  43.2033390  16.0363070  69.0321260
  44.2044880  15.3367200  68.1376110  45.9019060  15.1011300  67.9218140
  46.5159470  15.4190590  67.2599220  46.4468620  14.6159890  68.5414000
  52.3194240  31.0002930  65.3279980  51.8252520  31.3971800  64.6107110
  51.7107530  30.3752140  65.7217260  36.4240320  13.7805560  68.0357200
  36.9723310  13.5993610  67.2723310  36.4895630  12.9899670  68.5713510
  37.1972080  30.3711210  66.0457400  36.6032400  30.2395910  66.7847440
  37.1895920  29.5349350  65.5799500  46.6427100  13.6643440  64.2487430
  45.7686940  13.9978550  64.0460360  46.5337850  13.1916620  65.0739300
  47.5499080  15.8714310  65.6329150  47.2212440  15.0566070  65.2530880
  48.4981380  15.8284120  65.5094840  36.8284310  27.7369590  64.9965440
  36.1018370  27.1174880  64.9291390  36.8893460  28.1310200  64.1263520
  40.4329410  29.9514590  61.7814850  40.9494430  29.3401950  61.2563110
  41.0826790  30.4543370  62.2725860  43.1724910  30.8423080  62.6083830
  43.4602720  30.5877380  61.7316840  43.6848130  30.2900440  63.1989400
  44.3901920  14.5813280  63.1880340  43.6073710  15.0558780  63.4677100
  44.0964850  13.6768110  63.0793520  48.9422990  15.2836380  61.2329430
  49.3831080  15.2281480  60.3851030  48.6730580  16.1994390  61.3039610
  50.8061560  14.9151620  59.2438250  50.7449960  13.9712840  59.0969270
  51.5853590  15.0231710  59.7891710  35.1114310  31.0543980  58.2062200
  34.9436350  30.4214660  58.9044090  34.2448820  31.2603380  57.8556390
  35.7342330  14.8860760  55.7094060  36.4921690  14.9989640  55.1358090
  35.2719500  15.7229960  55.6637490  42.2756140  17.0000030  58.6996370
  41.4630650  16.6256920  58.3592250  42.7797780  16.2445110  59.0017560
  46.7781120  13.6642480  59.9379440  47.3810490  14.2362690  60.4127960
  46.0374110  14.2281920  59.7153340  49.9215720  14.0664040  55.2119720
  50.1166350  14.9647490  55.4787150  49.1345590  13.8351120  55.7052670
  38.1067480  15.4124810  54.2496030  38.6360240  14.6254610  54.1203980
  38.7395800  16.0916000  54.4831560  40.3005320  15.1499950  57.3041420
  39.6708060  14.4487260  57.4711550  39.7610460  15.9104080  57.0874580
  43.2397270  31.7639180  69.9752030  44.1664580  31.5283450  70.0187990
  43.2247700  32.5911180  69.4938060  40.4260880  14.4283930  69.7393910
  40.1445150  14.9317530  68.9754730  40.8080580  13.6305680  69.3736040
  38.4784770  27.8124320  54.5307920  37.8493650  28.2809420  55.0793750
  38.5932600  26.9673540  54.9654110  47.0276340  13.8437510  70.3174380
  46.9141790  14.1632120  71.2125900  47.8446080  14.2450020  70.0211660
  49.8074830  30.9909040  69.7993070  50.6000150  30.4958270  69.5919030
  50.1007980  31.6699180  70.4068680  34.4543320  21.5136350  43.1076240
  35.0259430  20.7458550  43.1079880  34.4544860  21.8125110  42.1982850
  35.6968190  16.9220710  44.8945170  35.5171030  16.0246460  45.1747930
  35.2948270  17.4692580  45.5692120  36.3154860  19.4181210  43.5027510
  36.9964970  19.6819580  44.1214910  36.0002910  18.5782080  43.8365520
  52.6090360  18.6353760  46.2929450  51.9042530  19.0235470  45.7744560
  52.8748280  19.3304050  46.8950380  38.7915530  15.1047130  46.8563520
  38.7933970  15.6219520  46.0509420  37.9619840  14.6277310  46.8333450
  38.4730860  16.8157090  44.8633970  38.8147670  17.6599140  44.5687840
  37.5346670  16.9640830  44.9799310  42.1558750  14.3039360  41.1878560
  42.4633730  13.7486250  40.4714060  41.2259450  14.4383820  41.0051550
  44.5308590  18.6405190  34.9205840  43.5912260  18.8019150  35.0058300
  44.8491850  19.3590870  34.3741830  38.8624770  19.6696140  44.4857450
  39.4139360  19.7791480  43.7110700  39.3768280  20.0433740  45.2012680
  38.5367500  23.1915500  48.0962790  38.3975270  24.0638300  48.4650190
  37.6548860  22.8488310  47.9510730  50.3318640  14.4238110  33.7487720
  50.0191300  14.5164940  34.6486790  51.0931110  15.0019140  33.6985150
  51.5419930  19.1609610  49.7261860  50.9264200  19.6689280  49.1977320
  51.2216350  18.2607940  49.6687800  39.3164440  15.1332980  41.5888730
  38.8732590  15.9142520  41.2573250  39.8749430  15.4562870  42.2959670
  43.6034250  18.0001500  47.1924050  43.1413620  18.2084520  48.0043990
  43.2012360  17.1860850  46.8894720  48.6038760  19.2210450  48.3220710
  47.7532350  18.9216200  48.6429780  48.4440550  19.4652460  47.4104530
  45.6988470  20.7212200  50.4219500  46.0241880  19.8875950  50.0821730
  46.4868800  21.2440720  50.5697830  42.4323260  14.7543680  36.4694560
  41.8077440  14.7503550  37.1947870  42.3453380  13.8874640  36.0730530
  41.3540340  15.6780310  43.4478330  41.6512670  16.5843140  43.3670350
  41.9025900  15.1899090  42.8337900  41.5477870  21.1552130  49.9830250
  41.4521470  20.2146860  49.8330650  42.3909850  21.3767200  49.5878320
  36.6788410  17.5665800  48.1364030  36.2851800  18.4141010  48.3436810
  35.9906810  16.9292170  48.3272670  43.2533460  17.6500770  51.2060770
  42.5631780  17.4572970  51.8406860  43.9965760  17.9335410  51.7385070
  33.9805460  15.4894260  42.1694110  33.6918510  16.0597120  42.8819090
  34.7251220  15.0098710  42.5325340  34.1675690  19.4314380  33.3796830
  34.0850360  20.3745140  33.5211820  33.8158750  19.2889290  32.5009180
  45.9922340  16.9432890  43.4537630  46.0095080  17.3941540  44.2979480
  45.7437920  16.0438530  43.6671070  49.4193090  14.3565070  49.2924010
  49.7438860  13.6254730  49.8181990  49.4549600  14.0378710  48.3905000
  36.1184650  25.3778650  48.7123970  35.7339440  24.7372320  49.3106930
  36.4296840  26.0814770  49.2818700  35.1322280  16.9698880  40.3226060
  34.8469200  16.6054550  41.1604680  35.0701140  16.2379340  39.7089200
  40.0581160  21.2663830  46.5116800  39.7538230  22.1455810  46.7367160
  41.0127620  21.3263620  46.5474240  44.8060870  15.8628140  37.0439430
  43.9925480  15.3641310  36.9684740  44.6122820  16.7026390  36.6275780
  36.1144890  22.1066570  47.6588160  35.7559830  22.7720420  48.2461500
  35.8199450  21.2750120  48.0300780  39.3158010  22.5650810  50.5427710
  39.0158150  22.7107990  49.6455530  40.0869250  22.0056100  50.4501100
  37.6899530  13.8368690  38.8753560  37.5614160  13.8286590  39.8238480
  36.8661550  14.1751780  38.5244570  34.6893460  15.5959810  48.3360260
  33.9751980  15.7956730  48.9412870  35.1088500  14.8199380  48.7075060
  42.9678640  27.8555960  50.7224910  42.6475510  27.1365200  51.2670600
  42.2937000  28.5311030  50.7960970  46.1832240  18.0882120  46.0861710
  46.5513060  17.2677330  46.4141280  45.3230440  18.1484010  46.5017360
  43.1434230  20.7421710  46.3099680  43.6419480  21.2167530  46.9751530
  43.2857180  19.8185230  46.5169710  45.5493730  16.0475670  39.7502940
  45.4261510  16.0661800  38.8012450  46.4978290  16.0954610  39.8701340
  39.7213320  17.6310090  35.6857860  40.5703850  18.0680240  35.6198050
  39.3544590  17.9430350  36.5129920  50.3501090  16.9589670  47.1528070
  49.8474690  17.6995070  47.4921880  51.1657750  17.3473670  46.8364860
  34.8422300  23.1382440  50.0782450  35.3461320  22.5589720  50.6498680
  34.1029720  23.4222670  50.6158820  41.8960240  24.5453430  49.6117970
  41.1305910  25.1138430  49.5272640  42.0776200  24.2529640  48.7186200
  36.8745380  21.2812030  50.9732520  36.9150720  20.9825900  51.8817750
  37.7290880  21.6819640  50.8140040  38.8151190  19.8604130  48.9407010
  38.2847650  19.3695080  48.3130350  39.4839260  20.2888330  48.4064940
  48.1851420  21.6669750  50.7087350  48.7672190  20.9122070  50.6207830
  48.3613190  22.1977190  49.9318830  39.3023490  16.8266500  49.0204300
  39.2080360  16.2087250  48.2955170  38.7220880  17.5532790  48.7934210
  42.0684930  15.3839740  46.0531690  41.6202230  15.4064000  45.2077240
  41.4350130  14.9858760  46.6501990  44.8108380  22.0110250  48.0581970
  44.9304590  21.4151390  48.7976810  45.6702380  22.0479940  47.6383270
  41.5777150  18.5531600  49.3157790  42.1676840  18.2447450  50.0035610
  40.7597390  18.0811350  49.4717690  46.3970580  18.1697410  49.5490810
  45.7086100  17.5078950  49.4840800  47.1176600  17.7235680  49.9939270
  47.0270980  14.7649040  35.6081070  47.3073270  13.9216940  35.9640490
  46.2536710  14.9972150  36.1219820  38.3465470  17.0541430  33.0672070
  38.6491370  17.0608860  32.1591220  39.0860060  16.7039290  33.5639730
  41.5650400  15.9976050  34.0528270  41.2172400  15.3200040  33.4730720
  41.7663170  15.5365560  34.8671660  35.9431970  22.9116270  44.9895980
  36.3105010  22.8243670  45.8692000  35.3742790  22.1482820  44.8902840
  35.4947970  19.8225360  48.8954400  34.6004020  19.7892120  49.2348110
  36.0345520  20.0212150  49.6605650  49.1823900  16.6057080  50.7806150
  50.0594080  16.6140480  51.1640150  49.1944740  15.8687920  50.1698500
  36.6621330  18.7928170  34.3012350  37.3713030  18.3711390  33.8159630
  35.9461270  18.8603400  33.6695700  36.3095490  14.8467500  33.3415000
  37.0323620  15.3876440  33.6596220  36.5820010  14.5730920  32.4656540
  35.9987680  14.0973690  43.2437620  36.6463870  13.5471070  42.8032780
  36.4189520  14.3516840  44.0653430  49.8940020  14.2915050  46.6007260
  50.5312240  14.9049190  46.9666450  50.0414910  14.3275710  45.6556490
  35.7519680  14.2529360  45.9862940  35.4034500  14.7093180  46.7521120
  35.4207380  13.3586490  46.0685370  37.3584050  27.4248960  50.1516130
  37.3153680  27.0541870  51.0330590  37.4895060  28.3626530  50.2917950
  43.2644500  15.4441240  49.5082360  43.2033390  16.0363070  50.2577770
  44.2044880  15.3367200  49.3632620  45.9019060  15.1011300  49.1474650
  46.5159470  15.4190590  48.4855730  46.4468620  14.6159890  49.7670510
  36.4240320  13.7805560  49.2613710  36.9723310  13.5993610  48.4979820
  36.4895630  12.9899670  49.7970020  46.6427100  13.6643440  45.4743940
  45.7686940  13.9978550  45.2716870  46.5337850  13.1916620  46.2995810
  47.5499080  15.8714310  46.8585660  47.2212440  15.0566070  46.4787390
  48.4981380  15.8284120  46.7351350  44.3901920  14.5813280  44.4136850
  43.6073710  15.0558780  44.6933610  44.0964850  13.6768110  44.3050030
  48.9422990  15.2836380  42.4585940  49.3831080  15.2281480  41.6107540
  48.6730580  16.1994390  42.5296120  35.7342330  14.8860760  36.9350570
  36.4921690  14.9989640  36.3614600  35.2719500  15.7229960  36.8894000
  46.7781120  13.6642480  41.1635950  47.3810490  14.2362690  41.6384470
  46.0374110  14.2281920  40.9409850  38.1067480  15.4124810  35.4752540
  38.6360240  14.6254610  35.3460490  38.7395800  16.0916000  35.7088070
  40.3005320  15.1499950  38.5297930  39.6708060  14.4487260  38.6968060
  39.7610460  15.9104080  38.3131090  40.4260880  14.4283930  50.9650420
  40.1445150  14.9317530  50.2011240  40.8080580  13.6305680  50.5992550
  47.0276340  13.8437510  51.5430890  46.9141790  14.1632120  52.4382410
  47.8446080  14.2450020  51.2468170  38.0818360  23.9528810  24.6650660
  37.2503240  23.6977520  25.0647170  38.6899340  24.0239580  25.4008580
  36.4910310  18.9130700  18.4493050  35.6027010  19.2546670  18.3472930
  36.7751500  18.7131020  17.5573880  34.4543320  21.5136350  24.3332750
  35.0259430  20.7458550  24.3336390  34.4544860  21.8125110  23.4239360
  35.6968190  16.9220710  26.1201680  35.5171030  16.0246460  26.4004440
  35.2948270  17.4692580  26.7948630  44.5366690  19.1236570  24.0213990
  44.9131510  18.2508450  23.9087660  44.4386200  19.4595270  23.1304430
  38.6671700  17.4962200  19.4831430  38.7738450  18.3965930  19.7900190
  37.7564060  17.4480170  19.1926080  48.3190810  16.6187010  20.9542330
  49.1400430  16.1283580  20.9967810  48.3524890  17.2084670  21.7074170
  36.3154860  19.4181210  24.7284020  36.9964970  19.6819580  25.3471420
  36.0002910  18.5782080  25.0622030  40.5079430  20.4648570  23.8156610
  41.0157650  20.9629540  24.4561630  41.0392670  19.6883770  23.6395970
  52.6090360  18.6353760  27.5185960  51.9042530  19.0235470  27.0001070
  52.8748280  19.3304050  28.1206890  38.7915530  15.1047130  28.0820030
  38.7933970  15.6219520  27.2765930  37.9619840  14.6277310  28.0589960
  45.1786620  25.2166440  19.5809930  44.5603890  25.6815890  19.0172650
  45.6909870  25.9093920  19.9979440  40.0418380  24.7442310  26.2593530
  39.7087760  25.3711230  26.9014600  40.2185060  25.2704190  25.4795200
  48.5552290  18.5587390  23.7269870  47.8507860  18.8472280  24.3072980
  48.9164450  19.3687500  23.3669430  38.4730860  16.8157090  26.0890480
  38.8147670  17.6599140  25.7944350  37.5346670  16.9640830  26.2055820
  34.5469820  25.9022970  16.9549560  34.1697800  26.3910070  16.2234460
  34.8042890  26.5748250  17.5856090  51.6239210  18.0042180  24.1179080
  50.6764120  18.0381160  24.2494510  51.9489200  18.8181130  24.5028440
  42.1558750  14.3039360  22.4135070  42.4633730  13.7486250  21.6970570
  41.2259450  14.4383820  22.2308060  49.0019230  26.7422870  19.7932700
  48.8915560  25.7997200  19.9182120  48.9987480  27.1038510  20.6795460
  44.5439510  22.3688190  19.1495190  43.6168790  22.3025570  19.3783660
  44.6964330  23.3068320  19.0350430  44.5308590  18.6405190  16.1462350
  43.5912260  18.8019150  16.2314810  44.8491850  19.3590870  15.5998340
  48.5736800  23.9308490  19.6530440  47.9549220  23.5928040  19.0056740
  48.5561250  23.2868250  20.3609630  48.0163360  20.1093030  27.0696250
  47.6034540  20.9346740  27.3236240  47.2839310  19.5238070  26.8772610
  40.1496150  22.8952930  21.9314920  39.7453150  22.1830180  21.4360820
  40.2359270  22.5506170  22.8202960  40.6177850  26.5820490  24.0954130
  40.3206140  25.9765960  23.4161910  41.5677670  26.6197800  23.9843490
  38.8624770  19.6696140  25.7113960  39.4139360  19.7791480  24.9367210
  39.3768280  20.0433740  26.4269190  39.7096280  26.3202180  30.7461930
  38.8124810  26.5442150  30.9935330  39.7349150  26.4437120  29.7973330
  46.7501500  23.1695300  16.6603190  47.1894780  22.3317730  16.5141010
  47.4629920  23.8024700  16.7467330  38.5367500  23.1915500  29.3219300
  38.3975270  24.0638300  29.6906700  37.6548860  22.8488310  29.1767240
  50.3318640  14.4238110  14.9744230  50.0191300  14.5164940  15.8743300
  51.0931110  15.0019140  14.9241660  36.8500780  21.7897910  19.4321570
  36.7298380  22.5160000  18.8202840  36.5401670  21.0200820  18.9549480
  34.4886150  24.9613050  25.2390210  34.5666570  25.0961820  24.2945930
  35.1027830  24.2528940  25.4318330  35.7333780  26.6613240  21.6496390
  35.3261860  26.8027830  20.7949990  36.6246790  26.3773400  21.4467600
  47.5267060  31.0960490  17.9847440  47.3668200  30.8063430  18.8829270
  47.3613770  30.3200620  17.4492670  40.0055440  30.8759020  19.7619060
  39.8297920  29.9594560  19.5486860  39.1511180  31.2346310  20.0016860
  47.2293190  28.6048050  16.5445440  46.5358350  28.6025340  15.8847720
  47.9716050  28.1807370  16.1139610  39.3164440  15.1332980  22.8145240
  38.8732590  15.9142520  22.4829760  39.8749430  15.4562870  23.5216180
  43.6034250  18.0001500  28.4180560  43.1413620  18.2084520  29.2300500
  43.2012360  17.1860850  28.1151230  42.4323260  14.7543680  17.6951070
  41.8077440  14.7503550  18.4204380  42.3453380  13.8874640  17.2987040
  41.3540340  15.6780310  24.6734840  41.6512670  16.5843140  24.5926860
  41.9025900  15.1899090  24.0594410  39.1078660  20.2566550  20.5426490
  38.8819580  20.0403720  21.4473110  38.3271190  20.6895010  20.1972460
  46.3376420  20.2629920  19.1417140  45.7385310  20.9865720  18.9580760
  46.8856030  20.2006700  18.3593590  41.5477870  21.1552130  31.2086760
  41.4521470  20.2146860  31.0587160  42.3909850  21.3767200  30.8134830
  44.9441290  18.8993460  21.1720420  45.3370860  19.2165660  20.3589110
  45.3058140  18.0205340  21.2864940  36.6788410  17.5665800  29.3620540
  36.2851800  18.4141010  29.5693320  35.9906810  16.9292170  29.5529180
  43.2533460  17.6500770  32.4317280  42.5631780  17.4572970  33.0663370
  43.9965760  17.9335410  32.9641580  33.9805460  15.4894260  23.3950620
  33.6918510  16.0597120  24.1075600  34.7251220  15.0098710  23.7581850
  34.1675690  19.4314380  14.6053340  34.0850360  20.3745140  14.7468330
  33.8158750  19.2889290  13.7265690  41.9673820  18.1653410  23.6723690
  41.9709880  17.7243360  22.8228230  42.8624940  18.4870740  23.7795510
  37.8176200  18.0479900  22.6317900  37.4776250  18.5255130  23.3884950
  37.0553520  17.5945020  22.2719000  42.0293970  19.1665490  16.6630450
  42.1506790  19.1251970  17.6116270  41.6442480  20.0289640  16.5077180
  45.9922340  16.9432890  24.6794140  46.0095080  17.3941540  25.5235990
  45.7437920  16.0438530  24.8927580  41.0415470  21.4766630  16.0613750
  40.4732370  21.0284880  15.4349660  41.7504470  21.8359410  15.5278900
  49.4193090  14.3565070  30.5180520  49.7438860  13.6254730  31.0438500
  49.4549600  14.0378710  29.6161510  36.1184650  25.3778650  29.9380480
  35.7339440  24.7372320  30.5363440  36.4296840  26.0814770  30.5075210
  35.1322280  16.9698880  21.5482570  34.8469200  16.6054550  22.3861190
  35.0701140  16.2379340  20.9345710  40.0581160  21.2663830  27.7373310
  39.7538230  22.1455810  27.9623670  41.0127620  21.3263620  27.7730750
  38.5862950  25.4724820  18.3340160  37.8125210  24.9322440  18.1738880
  39.3157580  24.9531430  17.9957920  44.8060870  15.8628140  18.2695940
  43.9925480  15.3641310  18.1941250  44.6122820  16.7026390  17.8532290
  47.5209260  20.2347790  16.5658100  48.4088880  20.5465020  16.3909440
  47.4914350  19.3620040  16.1738680  38.6300350  25.1405200  21.9718970
  39.1479020  24.3373460  21.9175860  38.1784370  25.0784340  22.8135800
  43.5169850  26.4071480  17.2446270  43.8585550  27.1513710  16.7489590
  42.6882560  26.7202600  17.6071100  36.1144890  22.1066570  28.8844670
  35.7559830  22.7720420  29.4718010  35.8199450  21.2750120  29.2557290
  49.7923530  21.5459630  16.0337960  49.7087250  21.9773850  15.1834400
  50.5117720  22.0057980  16.4664780  50.8210780  28.4001890  18.7620090
  50.1786940  27.7457510  19.0363810  50.4341440  28.8056980  17.9860760
  42.4860540  26.4885010  20.0162190  43.1731670  27.0354220  20.3969780
  41.6992960  27.0325740  20.0511800  34.6252940  22.1057830  15.5079270
  35.4947790  22.3882630  15.7915190  34.1343260  22.9193700  15.3928080
  41.7887750  23.4931040  19.6287550  42.2450530  24.3036290  19.8547740
  41.4375960  23.1754180  20.4606040  37.6899530  13.8368690  20.1010070
  37.5614160  13.8286590  21.0494990  36.8661550  14.1751780  19.7501080
  49.2108160  27.2918350  15.2996440  48.9845740  26.5748790  15.8921080
  48.8204360  27.0430790  14.4618190  34.9924190  31.3185210  16.0740900
  35.3521830  31.9174550  15.4198170  34.8516530  31.8645100  16.8475930
  34.6893460  15.5959810  29.5616770  33.9751980  15.7956730  30.1669380
  35.1088500  14.8199380  29.9331570  48.7924410  25.2090290  16.9610600
  48.5046110  25.6702980  17.7488480  49.5876580  24.7488060  17.2294820
  41.0092810  28.7016410  16.8914570  41.0002910  29.4346100  16.2759080
  40.0891170  28.4547990  16.9841530  36.6099450  23.9231300  17.6361330
  36.0027400  24.6630200  17.6456630  37.0848800  24.0130660  16.8099530
  46.1832240  18.0882120  27.3118220  46.5513060  17.2677330  27.6397790
  45.3230440  18.1484010  27.7273870  49.5494270  17.0439060  18.1205780
  48.9207430  17.1484730  17.4064010  49.0546190  17.2635840  18.9099660
  43.9952410  28.7644650  15.5539760  44.0964390  28.5608640  14.6241740
  43.0954150  28.5102930  15.7587540  41.5178300  19.3225010  19.5363660
  40.8094450  19.7911350  19.9777270  41.8022780  18.6647020  20.1708850
  43.1434230  20.7421710  27.5356190  43.6419480  21.2167530  28.2008040
  43.2857180  19.8185230  27.7426220  45.5493730  16.0475670  20.9759450
  45.4261510  16.0661800  20.0268960  46.4978290  16.0954610  21.0957850
  42.6370520  31.2830970  20.2487430  42.8912020  31.2452360  19.3266800
  41.6883000  31.1564300  20.2415680  39.7213320  17.6310090  16.9114370
  40.5703850  18.0680240  16.8454560  39.3544590  17.9430350  17.7386430
  50.3501090  16.9589670  28.3784580  49.8474690  17.6995070  28.7178390
  51.1657750  17.3473670  28.0621370  48.6423100  22.2022850  21.8245940
  47.7013240  22.2173080  21.9993630  48.9567170  21.4158810  22.2706240
  38.6204740  23.8842450  15.3849900  39.3868010  23.7723810  15.9475330
  38.6979430  23.1880420  14.7326670  37.3151500  21.3167520  16.0682790
  37.3955090  20.3695030  16.1800190  38.2071250  21.6474400  16.1743450
  35.0011690  27.5336480  19.0458840  34.0751470  27.7757620  19.0364250
  35.4668120  28.3610740  18.9243590  41.2268520  30.6393220  14.9942900
  42.0197130  30.9282050  14.5424690  40.7072870  30.2085390  14.3155380
  50.2798690  29.8663350  16.4179640  49.9940200  29.4528490  15.6033820
  50.0818240  30.7951060  16.2980160  41.7445920  25.8596630  14.8585250
  41.6396560  25.2448980  15.5846630  41.5770140  25.3362520  14.0748260
  44.9848650  24.9216660  15.4627240  44.4358750  25.3685960  16.1069980
  45.6067910  24.4165910  15.9864910  40.6523770  23.8807580  17.3592540
  41.0740190  23.7147450  18.2023930  40.7774610  23.0707810  16.8647680
  38.8151190  19.8604130  30.1663520  38.2847650  19.3695080  29.5386860
  39.4839260  20.2888330  29.6321450  43.1651410  22.9045190  14.6069640
  43.6857070  22.1894210  14.2410790  43.8119810  23.5431060  14.9070150
  39.3023490  16.8266500  30.2460810  39.2080360  16.2087250  29.5211680
  38.7220880  17.5532790  30.0190720  42.0684930  15.3839740  27.2788200
  41.6202230  15.4064000  26.4333750  41.4350130  14.9858760  27.8758500
  39.5482670  19.9540810  14.3050700  39.3471730  19.0908170  14.6664040
  39.3774720  19.8674170  13.3672300  41.5777150  18.5531600  30.5414300
  42.1676840  18.2447450  31.2292120  40.7597390  18.0811350  30.6974200
  46.3970580  18.1697410  30.7747320  45.7086100  17.5078950  30.7097310
  47.1176600  17.7235680  31.2195780  47.0270980  14.7649040  16.8337580
  47.3073270  13.9216940  17.1897000  46.2536710  14.9972150  17.3476330
  38.3465470  17.0541430  14.2928580  38.6491370  17.0608860  13.3847730
  39.0860060  16.7039290  14.7896240  41.5650400  15.9976050  15.2784780
  41.2172400  15.3200040  14.6987230  41.7663170  15.5365560  16.0928170
  43.7299440  30.9856800  16.8971380  44.6250230  31.3241770  16.9190140
  43.7617070  30.2636210  16.2695660  37.3695600  26.3583850  15.1258380
  37.8070470  26.9013520  15.7815960  37.8543330  25.5330800  15.1354720
  34.5841400  29.1472880  22.5778640  34.9144410  28.2793940  22.3457280
  35.0132400  29.3531400  23.4083600  39.1803320  27.4781890  20.2380610
  38.8798860  27.3546860  21.1384520  39.0740810  26.6190480  19.8296340
  51.9495240  27.2578290  14.9407290  51.1188200  27.3254940  15.4114520
  52.1267070  28.1482410  14.6374150  51.4051700  24.0025770  17.4441490
  52.1670610  24.5722420  17.5501180  51.4206070  23.4352970  18.2149800
  34.9056040  22.5263700  21.6749150  34.2504880  22.2575340  21.0308850
  35.7433990  22.4168180  21.2251130  51.4570870  24.2960140  14.6014010
  51.7319710  25.2039020  14.4733230  51.2681610  24.2322670  15.5376000
  47.8546480  17.3204990  15.8967640  48.2731360  17.1335970  15.0564300
  47.5482540  16.4684040  16.2070570  51.3536210  22.2329130  19.5943440
  50.9779810  21.4657060  19.1624730  50.6239330  22.6151830  20.0818370
  35.9431970  22.9116270  26.2152490  36.3105010  22.8243670  27.0948510
  35.3742790  22.1482820  26.1159350  35.4947970  19.8225360  30.1210910
  34.6004020  19.7892120  30.4604620  36.0345520  20.0212150  30.8862160
  34.1194120  19.7362630  17.6174480  33.2158200  19.9992830  17.4426140
  34.6034740  20.0073800  16.8374440  50.6287170  20.4586620  22.8950680
  51.1524650  19.9649270  22.2640850  51.2146590  20.5936980  23.6398250
  50.8076890  20.5426490  26.4170230  49.8579600  20.5090030  26.5315220
  50.9889900  21.4526600  26.1820000  36.6621330  18.7928170  15.5268860
  37.3713030  18.3711390  15.0416140  35.9461270  18.8603400  14.8952210
  36.3095490  14.8467500  14.5671510  37.0323620  15.3876440  14.8852730
  36.5820010  14.5730920  13.6913050  50.1187140  19.7159970  18.8343090
  50.6146260  19.4830840  19.6191970  49.9203210  18.8771810  18.4180730
  35.9987680  14.0973690  24.4694130  36.6463870  13.5471070  24.0289290
  36.4189520  14.3516840  25.2909940  51.5474300  18.3520920  21.3680770
  51.4373580  18.1976960  22.3063040  52.3081890  17.8241860  21.1256180
  49.8940020  14.2915050  27.8263770  50.5312240  14.9049190  28.1922960
  50.0414910  14.3275710  26.8813000  52.4364570  16.1828840  14.6086910
  53.3613880  16.0510020  14.4005200  52.4140360  16.2621660  15.5623360
  52.5103060  16.9539500  17.2343620  51.7154560  16.8884620  17.7636530
  52.7146340  17.8890140  17.2228970  35.7519680  14.2529360  27.2119450
  35.4034500  14.7093180  27.9777630  35.4207380  13.3586490  27.2941880
  43.2644500  15.4441240  30.7338870  43.2033390  16.0363070  31.4834280
  44.2044880  15.3367200  30.5889130  45.9019060  15.1011300  30.3731160
  46.5159470  15.4190590  29.7112240  46.4468620  14.6159890  30.9927020
  36.4240320  13.7805560  30.4870220  36.9723310  13.5993610  29.7236330
  36.4895630  12.9899670  31.0226530  46.6427100  13.6643440  26.7000450
  45.7686940  13.9978550  26.4973380  46.5337850  13.1916620  27.5252320
  47.5499080  15.8714310  28.0842170  47.2212440  15.0566070  27.7043900
  48.4981380  15.8284120  27.9607860  44.3901920  14.5813280  25.6393360
  43.6073710  15.0558780  25.9190120  44.0964850  13.6768110  25.5306540
  48.9422990  15.2836380  23.6842450  49.3831080  15.2281480  22.8364050
  48.6730580  16.1994390  23.7552630  50.8061560  14.9151620  21.6951270
  50.7449960  13.9712840  21.5482290  51.5853590  15.0231710  22.2404730
  35.1114310  31.0543980  20.6575220  34.9436350  30.4214660  21.3557110
  34.2448820  31.2603380  20.3069410  35.7342330  14.8860760  18.1607080
  36.4921690  14.9989640  17.5871110  35.2719500  15.7229960  18.1150510
  42.2756140  17.0000030  21.1509390  41.4630650  16.6256920  20.8105270
  42.7797780  16.2445110  21.4530580  46.7781120  13.6642480  22.3892460
  47.3810490  14.2362690  22.8640980  46.0374110  14.2281920  22.1666360
  49.9215720  14.0664040  17.6632740  50.1166350  14.9647490  17.9300170
  49.1345590  13.8351120  18.1565690  36.7177010  29.7477210  18.1025360
  36.1924630  30.1285240  17.3987320  36.6421590  30.3727980  18.8235070
  38.1067480  15.4124810  16.7009050  38.6360240  14.6254610  16.5717000
  38.7395800  16.0916000  16.9344580  40.3005320  15.1499950  19.7554440
  39.6708060  14.4487260  19.9224570  39.7610460  15.9104080  19.5387600
  40.4260880  14.4283930  32.1906930  40.1445150  14.9317530  31.4267750
  40.8080580  13.6305680  31.8249060  39.3169980  31.6959590  16.9774610
  40.0488800  31.4118870  16.4298500  39.5763650  31.4572870  17.8673990
  38.4784770  27.8124320  16.9820940  37.8493650  28.2809420  17.5306770
  38.5932600  26.9673540  17.4167130  47.0276340  13.8437510  32.7687400
  46.9141790  14.1632120  33.6638920  47.8446080  14.2450020  32.4724680
  45.9334490  21.8629980   3.1322140  45.8528540  20.9484590   2.8613850
  45.5198910  22.3597050   2.4261850  44.0652530  23.6409000   5.0131410
  43.2894630  23.1609440   5.3029980  44.7165460  22.9614650   4.8387570
  38.0818360  23.9528810   5.8907170  37.2503240  23.6977520   6.2903680
  38.6899340  24.0239580   6.6265090  48.0859960  28.0469190   3.7930540
  47.6241490  27.2756430   4.1217710  48.8985510  28.0735260   4.2982990
  38.0619620  27.9868900   6.0865190  38.3647660  27.0966640   5.9075410
  38.8063210  28.5439120   5.8587440  34.4543320  21.5136350   5.5589260
  35.0259430  20.7458550   5.5592900  34.4544860  21.8125110   4.6495870
  44.3123270  30.3327200   3.4134530  43.6934710  30.7884700   2.8428970
  45.1675050  30.4878660   3.0124230  43.5061520  26.3166190   5.0201570
  43.4369800  25.3756130   4.8590700  44.2681380  26.4067600   5.5924140
  35.6968190  16.9220710   7.3458190  35.5171030  16.0246460   7.6260950
  35.2948270  17.4692580   8.0205140  44.5366690  19.1236570   5.2470500
  44.9131510  18.2508450   5.1344170  44.4386200  19.4595270   4.3560940
  48.3190810  16.6187010   2.1798840  49.1400430  16.1283580   2.2224320
  48.3524890  17.2084670   2.9330680  36.3154860  19.4181210   5.9540530
  36.9964970  19.6819580   6.5727930  36.0002910  18.5782080   6.2878540
  40.5079430  20.4648570   5.0413120  41.0157650  20.9629540   5.6818140
  41.0392670  19.6883770   4.8652480  52.6090360  18.6353760   8.7442470
  51.9042530  19.0235470   8.2257580  52.8748280  19.3304050   9.3463400
  38.7915530  15.1047130   9.3076540  38.7933970  15.6219520   8.5022440
  37.9619840  14.6277310   9.2846470  40.0418380  24.7442310   7.4850040
  39.7087760  25.3711230   8.1271110  40.2185060  25.2704190   6.7051710
  48.5552290  18.5587390   4.9526380  47.8507860  18.8472280   5.5329490
  48.9164450  19.3687500   4.5925940  38.4730860  16.8157090   7.3146990
  38.8147670  17.6599140   7.0200860  37.5346670  16.9640830   7.4312330
  39.2537480  26.7123110   9.2999220  39.8711480  27.3874190   9.0183670
  38.3930600  27.1211090   9.2086720  50.1715070  28.1762520   7.2153860
  49.4878590  28.8461630   7.2070530  50.7109360  28.3743170   6.4498720
  51.6239210  18.0042180   5.3435590  50.6764120  18.0381160   5.4751020
  51.9489200  18.8181130   5.7284950  42.1558750  14.3039360   3.6391580
  42.4633730  13.7486250   2.9227080  41.2259450  14.4383820   3.4564570
  47.7073810  30.0206650   5.9299040  47.7200970  29.6168940   5.0621300
  47.1549030  30.7953940   5.8260470  47.1059250  24.9236490   7.2581650
  47.5228040  24.7096600   6.4235110  47.8299070  25.1809280   7.8290270
  51.0521350  23.3223710   7.3497890  50.2239980  23.3916800   6.8748020
  51.6471830  23.9078020   6.8813720  48.0163360  20.1093030   8.2952760
  47.6034540  20.9346740   8.5492750  47.2839310  19.5238070   8.1029120
  40.1496150  22.8952930   3.1571430  39.7453150  22.1830180   2.6617330
  40.2359270  22.5506170   4.0459470  40.6177850  26.5820490   5.3210640
  40.3206140  25.9765960   4.6418420  41.5677670  26.6197800   5.2100000
  38.8624770  19.6696140   6.9370470  39.4139360  19.7791480   6.1623720
  39.3768280  20.0433740   7.6525700  48.7063460  30.1552360   8.9833740
  48.2294020  30.9624550   8.7906350  48.0225250  29.5030690   9.1359950
  39.7096280  26.3202180  11.9718440  38.8124810  26.5442150  12.2191840
  39.7349150  26.4437120  11.0229840  38.5367500  23.1915500  10.5475810
  38.3975270  24.0638300  10.9163210  37.6548860  22.8488310  10.4023750
  44.8596880  28.1091370   1.8540940  45.2992790  28.8515700   1.4396330
  44.7983770  28.3517940   2.7779900  40.3347850  29.1337200  12.7560960
  40.3063280  29.5380150  11.8889390  40.1712820  28.2047560  12.5932560
  52.2862670  29.9164300  14.0525130  52.7622390  30.3947190  14.7314210
  52.9069830  29.8481790  13.3270630  34.4886150  24.9613050   6.4646720
  34.5666570  25.0961820   5.5202440  35.1027830  24.2528940   6.6574840
  35.7333780  26.6613240   2.8752900  35.3261860  26.8027830   2.0206500
  36.6246790  26.3773400   2.6724110  51.6895920  27.1077150  11.2125140
  51.8158980  26.8689030  10.2942320  51.7317300  26.2761690  11.6847220
  45.5512660  30.8105150   9.7819950  46.0657330  30.7213160  10.5842380
  44.7081740  31.1564850  10.0747860  46.7943120  30.2310760   1.8450440
  47.2500070  29.4500140   2.1589060  47.1335640  30.9417580   2.3891620
  51.5419930  19.1609610  12.1774880  50.9264200  19.6689280  11.6490340
  51.2216350  18.2607940  12.1200820  34.5445670  26.0027220   9.0041180
  34.7076710  25.5332580   8.1860550  35.0098120  25.4950780   9.6690020
  39.3164440  15.1332980   4.0401750  38.8732590  15.9142520   3.7086270
  39.8749430  15.4562870   4.7472690  43.6034250  18.0001500   9.6437070
  43.1413620  18.2084520  10.4557010  43.2012360  17.1860850   9.3407740
  48.6038760  19.2210450  10.7733730  47.7532350  18.9216200  11.0942800
  48.4440550  19.4652460   9.8617550  45.6988470  20.7212200  12.8732520
  46.0241880  19.8875950  12.5334750  46.4868800  21.2440720  13.0210850
  41.3540340  15.6780310   5.8991350  41.6512670  16.5843140   5.8183370
  41.9025900  15.1899090   5.2850920  39.1078660  20.2566550   1.7683000
  38.8819580  20.0403720   2.6729620  38.3271190  20.6895010   1.4228970
  41.5477870  21.1552130  12.4343270  41.4521470  20.2146860  12.2843670
  42.3909850  21.3767200  12.0391340  44.9441290  18.8993460   2.3976930
  45.3370860  19.2165660   1.5845620  45.3058140  18.0205340   2.5121450
  36.6788410  17.5665800  10.5877050  36.2851800  18.4141010  10.7949830
  35.9906810  16.9292170  10.7785690  43.2533460  17.6500770  13.6573790
  42.5631780  17.4572970  14.2919880  43.9965760  17.9335410  14.1898090
  33.9805460  15.4894260   4.6207130  33.6918510  16.0597120   5.3332110
  34.7251220  15.0098710   4.9838360  45.5296430  21.4899210   6.4927710
  44.7977550  21.9986020   6.8417810  45.1320770  20.6729190   6.1916490
  41.9673820  18.1653410   4.8980200  41.9709880  17.7243360   4.0484740
  42.8624940  18.4870740   5.0052020  37.8176200  18.0479900   3.8574410
  37.4776250  18.5255130   4.6141460  37.0553520  17.5945020   3.4975510
  45.9922340  16.9432890   5.9050650  46.0095080  17.3941540   6.7492500
  45.7437920  16.0438530   6.1184090  49.4193090  14.3565070  11.7437030
  49.7438860  13.6254730  12.2695010  49.4549600  14.0378710  10.8418020
  36.1184650  25.3778650  11.1636990  35.7339440  24.7372320  11.7619950
  36.4296840  26.0814770  11.7331720  42.2681790  22.2255190   6.6445610
  42.6351920  21.7513760   7.3906950  42.0786850  23.0996760   6.9853950
  35.1322280  16.9698880   2.7739080  34.8469200  16.6054550   3.6117700
  35.0701140  16.2379340   2.1602220  40.0581160  21.2663830   8.9629820
  39.7538230  22.1455810   9.1880180  41.0127620  21.3263620   8.9987260
  49.3450930  24.4690180   5.3523060  50.0650050  24.9645470   4.9619170
  49.1432750  23.7908070   4.7076930  44.7269730  24.5399240  11.2392060
  44.6607040  23.6194910  10.9849650  44.0974870  24.6374680  11.9536700
  38.6300350  25.1405200   3.1975480  39.1479020  24.3373460   3.1432370
  38.1784370  25.0784340   4.0392310  36.1144890  22.1066570  10.1101180
  35.7559830  22.7720420  10.6974520  35.8199450  21.2750120  10.4813800
  39.3158010  22.5650810  12.9940730  39.0158150  22.7107990  12.0968550
  40.0869250  22.0056100  12.9014120  44.6586460  27.3619810  10.9895860
  44.6731000  26.4300770  10.7714770  43.9511560  27.4479570  11.6285630
  50.8697670  24.0027150  10.3364440  50.1445860  24.5955930  10.1393830
  51.3973130  23.9950690   9.5377810  46.3997260  25.7287320   3.8348290
  46.7521080  25.1315450   3.1749660  45.5159590  25.4031550   4.0056540
  44.0920360  29.0037380   8.0836360  44.7362580  29.2096760   8.7609780
  44.4549800  28.2425780   7.6307210  45.3652440  27.0069730   6.8013810
  46.0074670  26.3062890   6.9145980  45.8901790  27.7868170   6.6210700
  47.1390060  27.8064630  10.0049870  47.4746300  28.3931320  10.6827790
  46.2190400  27.6757340  10.2347660  34.6893460  15.5959810  10.7873280
  33.9751980  15.7956730  11.3925890  35.1088500  14.8199380  11.1588080
  34.9766050  29.5840070  11.7739810  35.0857170  28.6434810  11.6335200
  34.3246610  29.8494820  11.1253540  42.9678640  27.8555960  13.1737930
  42.6475510  27.1365200  13.7183620  42.2937000  28.5311030  13.2473990
  46.1832240  18.0882120   8.5374730  46.5513060  17.2677330   8.8654300
  45.3230440  18.1484010   8.9530380  43.1434230  20.7421710   8.7612700
  43.6419480  21.2167530   9.4264550  43.2857180  19.8185230   8.9682730
  50.3501090  16.9589670   9.6041090  49.8474690  17.6995070   9.9434900
  51.1657750  17.3473670   9.2877880  48.6423100  22.2022850   3.0502450
  47.7013240  22.2173080   3.2250140  48.9567170  21.4158810   3.4962750
  50.6448680  29.3731700   4.7256710  50.7696100  30.1962870   5.1980520
  51.5114240  29.1622430   4.3780860  38.1166210  31.4662910   4.3973840
  38.8528690  30.9178370   4.6682410  38.5007130  32.3318920   4.2579830
  37.1224490  30.6508980  13.5859420  37.9237220  30.9721030  13.9994820
  36.6076310  30.2904560  14.3079330  45.9589120  26.7588850  13.5334830
  45.3527280  26.7820450  12.7930580  45.6543230  26.0271890  14.0702080
  47.3889490  30.4869140  12.1444240  48.3411240  30.4027160  12.0944480
  47.2417710  31.1510850  12.8178030  34.8422300  23.1382440  12.5295470
  35.3461320  22.5589720  13.1011700  34.1029720  23.4222670  13.0671840
  41.8960240  24.5453430  12.0630990  41.1305910  25.1138430  11.9785660
  42.0776200  24.2529640  11.1699220  49.0383590  26.2758760  12.6206010
  49.7793060  26.6134520  12.1173470  48.2756270  26.4450820  12.0675780
  36.8745380  21.2812030  13.4245540  36.9150720  20.9825900  14.3330770
  37.7290880  21.6819640  13.2653060  38.8151190  19.8604130  11.3920030
  38.2847650  19.3695080  10.7643370  39.4839260  20.2888330  10.8577960
  47.7129250  24.3273590  11.1561220  48.1270270  24.4818670  12.0051640
  46.7780250  24.4528810  11.3187000  48.1851420  21.6669750  13.1600370
  48.7672190  20.9122070  13.0720850  48.3613190  22.1977190  12.3831850
  39.3023490  16.8266500  11.4717320  39.2080360  16.2087250  10.7468190
  38.7220880  17.5532790  11.2447230  42.0684930  15.3839740   8.5044710
  41.6202230  15.4064000   7.6590260  41.4350130  14.9858760   9.1015010
  42.4744480  24.2794070   9.1257150  42.8932590  25.1226800   8.9533390
  41.5553110  24.4166110   8.8963930  44.8108380  22.0110250  10.5094990
  44.9304590  21.4151390  11.2489830  45.6702380  22.0479940  10.0896290
  47.1496280  22.5647440   9.0857500  46.6231500  23.0890060   8.4822640
  47.4927620  23.1974830   9.7167230  40.3251900  30.5847080  10.2414880
  39.7872990  31.3093140   9.9223580  40.5785860  30.1077420   9.4512220
  41.5777150  18.5531600  11.7670810  42.1676840  18.2447450  12.4548630
  40.7597390  18.0811350  11.9230710  46.3970580  18.1697410  12.0003830
  45.7086100  17.5078950  11.9353820  47.1176600  17.7235680  12.4452290
  43.1814110  31.8198290  10.5001530  43.1072810  32.7233430  10.8073900
  42.2792950  31.5010190  10.4723600  34.5841400  29.1472880   3.8035150
  34.9144410  28.2793940   3.5713790  35.0132400  29.3531400   4.6340110
  35.0731610  30.0143470   6.5416780  34.6362600  30.1944270   7.3740930
  35.6409290  30.7718090   6.3998500  50.7093790  29.5160470  10.8294090
  50.1095780  29.5753030  10.0858010  50.8387690  28.5765450  10.9590940
  34.9056040  22.5263700   2.9005660  34.2504880  22.2575340   2.2565360
  35.7433990  22.4168180   2.4507640  52.4111670  24.8575870   3.5139930
  52.7820500  24.0743190   3.1075900  53.0513600  25.5464970   3.3357230
  49.3945430  26.2412450   8.9270250  48.5805270  26.6709610   9.1896040
  49.8019630  26.8530860   8.3139300  35.9431970  22.9116270   7.4409000
  36.3105010  22.8243670   8.3205020  35.3742790  22.1482820   7.3415860
  50.7435830  21.3800650  10.4539470  50.5121920  21.1513400   9.5537420
  51.0040380  22.3000200  10.4084360  35.4947970  19.8225360  11.3467420
  34.6004020  19.7892120  11.6861130  36.0345520  20.0212150  12.1118670
  49.1823900  16.6057080  13.2319170  50.0594080  16.6140480  13.6153170
  49.1944740  15.8687920  12.6211520  50.6287170  20.4586620   4.1207190
  51.1524650  19.9649270   3.4897360  51.2146590  20.5936980   4.8654760
  50.8076890  20.5426490   7.6426740  49.8579600  20.5090030   7.7571730
  50.9889900  21.4526600   7.4076510  35.9987680  14.0973690   5.6950640
  36.6463870  13.5471070   5.2545800  36.4189520  14.3516840   6.5166450
  51.5474300  18.3520920   2.5937280  51.4373580  18.1976960   3.5319550
  52.3081890  17.8241860   2.3512690  49.8940020  14.2915050   9.0520280
  50.5312240  14.9049190   9.4179470  50.0414910  14.3275710   8.1069510
  49.4521480  30.9931050   2.4538520  50.0480550  30.6715620   1.7772940
  49.7099630  30.5202870   3.2451790  35.7519680  14.2529360   8.4375960
  35.4034500  14.7093180   9.2034140  35.4207380  13.3586490   8.5198390
  37.3584050  27.4248960  12.6029150  37.3153680  27.0541870  13.4843610
  37.4895060  28.3626530  12.7430970  41.0590080  28.9808550   8.2038870
  40.8181440  29.2483110   7.3169390  41.9992720  29.1514280   8.2589730
  43.2644500  15.4441240  11.9595380  43.2033390  16.0363070  12.7090790
  44.2044880  15.3367200  11.8145640  45.9019060  15.1011300  11.5987670
  46.5159470  15.4190590  10.9368750  46.4468620  14.6159890  12.2183530
  52.3194240  31.0002930   9.0049510  51.8252520  31.3971800   8.2876640
  51.7107530  30.3752140   9.3986790  36.4240320  13.7805560  11.7126730
  36.9723310  13.5993610  10.9492840  36.4895630  12.9899670  12.2483040
  37.1972080  30.3711210   9.7226930  36.6032400  30.2395910  10.4616970
  37.1895920  29.5349350   9.2569030  46.6427100  13.6643440   7.9256960
  45.7686940  13.9978550   7.7229890  46.5337850  13.1916620   8.7508830
  47.5499080  15.8714310   9.3098680  47.2212440  15.0566070   8.9300410
  48.4981380  15.8284120   9.1864370  50.0033690  31.6426350   6.2836250
  49.5436660  32.3942160   5.9094270  49.3746150  30.9232820   6.2251050
  36.8284310  27.7369590   8.6734970  36.1018370  27.1174880   8.6060920
  36.8893460  28.1310200   7.8033050  40.4329410  29.9514590   5.4584380
  40.9494430  29.3401950   4.9332640  41.0826790  30.4543370   5.9495390
  43.1724910  30.8423080   6.2853360  43.4602720  30.5877380   5.4086370
  43.6848130  30.2900440   6.8758930  44.3901920  14.5813280   6.8649870
  43.6073710  15.0558780   7.1446630  44.0964850  13.6768110   6.7563050
  48.9422990  15.2836380   4.9098960  49.3831080  15.2281480   4.0620560
  48.6730580  16.1994390   4.9809140  50.8061560  14.9151620   2.9207780
  50.7449960  13.9712840   2.7738800  51.5853590  15.0231710   3.4661240
  35.1114310  31.0543980   1.8831730  34.9436350  30.4214660   2.5813620
  34.2448820  31.2603380   1.5325920  42.2756140  17.0000030   2.3765900
  41.4630650  16.6256920   2.0361780  42.7797780  16.2445110   2.6787090
  46.7781120  13.6642480   3.6148970  47.3810490  14.2362690   4.0897490
  46.0374110  14.2281920   3.3922870  43.2397270  31.7639180  13.6521560
  44.1664580  31.5283450  13.6957520  43.2247700  32.5911180  13.1707590
  40.4260880  14.4283930  13.4163440  40.1445150  14.9317530  12.6524260
  40.8080580  13.6305680  13.0505570  47.0276340  13.8437510  13.9943910
  46.9141790  14.1632120  14.8895430  47.8446080  14.2450020  13.6981190
  49.8074830  30.9909040  13.4762600  50.6000150  30.4958270  13.2688560
  50.1007980  31.6699180  14.0838210  45.9334490   3.0886490  78.2296100
  45.8528540   2.1741100  77.9587810  45.5198910   3.5853560  77.5235810
  44.0652530   4.8665510  80.1105370  43.2894630   4.3865950  80.4003940
  44.7165460   4.1871160  79.9361530  38.0818360   5.1785320  80.9881130
  37.2503240   4.9234030  81.3877640  38.6899340   5.2496090  81.7239050
  48.0859960   9.2725700  78.8904500  47.6241490   8.5012940  79.2191670
  48.8985510   9.2991770  79.3956950  38.0619620   9.2125410  81.1839150
  38.3647660   8.3223150  81.0049370  38.8063210   9.7695630  80.9561400
  34.4543320   2.7392860  80.6563220  35.0259430   1.9715060  80.6566860
  34.4544860   3.0381620  79.7469830  44.3123270  11.5583710  78.5108490
  43.6934710  12.0141210  77.9402930  45.1675050  11.7135170  78.1098190
  43.5061520   7.5422700  80.1175530  43.4369800   6.6012640  79.9564660
  44.2681380   7.6324110  80.6898100  45.1786620   6.4422950  75.9040400
  44.5603890   6.9072400  75.3403120  45.6909870   7.1350430  76.3209910
  40.0418380   5.9698820  82.5824000  39.7087760   6.5967740  83.2245070
  40.2185060   6.4960700  81.8025670  34.5469820   7.1279480  73.2780030
  34.1697800   7.6166580  72.5464930  34.8042890   7.8004760  73.9086560
  50.1715070   9.4019030  82.3127820  49.4878590  10.0718140  82.3044490
  50.7109360   9.5999680  81.5472680  47.7073810  11.2463160  81.0273000
  47.7200970  10.8425450  80.1595260  47.1549030  12.0210450  80.9234430
  49.0019230   7.9679380  76.1163170  48.8915560   7.0253710  76.2412590
  48.9987480   8.3295020  77.0025930  47.1059250   6.1493000  82.3555610
  47.5228040   5.9353110  81.5209070  47.8299070   6.4065790  82.9264230
  44.5439510   3.5944700  75.4725660  43.6168790   3.5282080  75.7014130
  44.6964330   4.5324830  75.3580900  51.0521350   4.5480220  82.4471850
  50.2239980   4.6173310  81.9721980  51.6471830   5.1334530  81.9787680
  48.5736800   5.1565000  75.9760910  47.9549220   4.8184550  75.3287210
  48.5561250   4.5124760  76.6840100  40.1496150   4.1209440  78.2545390
  39.7453150   3.4086690  77.7591290  40.2359270   3.7762680  79.1433430
  40.6177850   7.8077000  80.4184600  40.3206140   7.2022470  79.7392380
  41.5677670   7.8454310  80.3073960  46.7501500   4.3951810  72.9833660
  47.1894780   3.5574240  72.8371480  47.4629920   5.0281210  73.0697800
  44.8596880   9.3347880  76.9514900  45.2992790  10.0772210  76.5370290
  44.7983770   9.5774450  77.8753860  36.8500780   3.0154420  75.7552040
  36.7298380   3.7416510  75.1433310  36.5401670   2.2457330  75.2779950
  34.4886150   6.1869560  81.5620680  34.5666570   6.3218330  80.6176400
  35.1027830   5.4785450  81.7548800  35.7333780   7.8869750  77.9726860
  35.3261860   8.0284340  77.1180460  36.6246790   7.6029910  77.7698070
  47.5267060  12.3217000  74.3077910  47.3668200  12.0319940  75.2059740
  47.3613770  11.5457130  73.7723140  40.0055440  12.1015530  76.0849530
  39.8297920  11.1851070  75.8717330  39.1511180  12.4602820  76.3247330
  47.2293190   9.8304560  72.8675910  46.5358350   9.8281850  72.2078190
  47.9716050   9.4063880  72.4370080  46.7943120  11.4567270  76.9424400
  47.2500070  10.6756650  77.2563020  47.1335640  12.1674090  77.4865580
  45.5296430   2.7155720  81.5901670  44.7977550   3.2242530  81.9391770
  45.1320770   1.8985700  81.2890450  41.0415470   2.7023140  72.3844220
  40.4732370   2.2541390  71.7580130  41.7504470   3.0615920  71.8509370
  42.2681790   3.4511700  81.7419570  42.6351920   2.9770270  82.4880910
  42.0786850   4.3253270  82.0827910  38.5862950   6.6981330  74.6570630
  37.8125210   6.1578950  74.4969350  39.3157580   6.1787940  74.3188390
  49.3450930   5.6946690  80.4497020  50.0650050   6.1901980  80.0593130
  49.1432750   5.0164580  79.8050890  38.6300350   6.3661710  78.2949440
  39.1479020   5.5629970  78.2406330  38.1784370   6.3040850  79.1366270
  43.5169850   7.6327990  73.5676740  43.8585550   8.3770220  73.0720060
  42.6882560   7.9459110  73.9301570  49.7923530   2.7716140  72.3568430
  49.7087250   3.2030360  71.5064870  50.5117720   3.2314490  72.7895250
  50.8210780   9.6258400  75.0850560  50.1786940   8.9714020  75.3594280
  50.4341440  10.0313490  74.3091230  46.3997260   6.9543830  78.9322250
  46.7521080   6.3571960  78.2723620  45.5159590   6.6288060  79.1030500
  42.4860540   7.7141520  76.3392660  43.1731670   8.2610730  76.7200250
  41.6992960   8.2582250  76.3742270  34.6252940   3.3314340  71.8309740
  35.4947790   3.6139140  72.1145660  34.1343260   4.1450210  71.7158550
  41.7887750   4.7187550  75.9518020  42.2450530   5.5292800  76.1778210
  41.4375960   4.4010690  76.7836510  45.3652440   8.2326240  81.8987770
  46.0074670   7.5319400  82.0119940  45.8901790   9.0124680  81.7184660
  49.2108160   8.5174860  71.6226910  48.9845740   7.8005300  72.2151550
  48.8204360   8.2687300  70.7848660  34.9924190  12.5441720  72.3971370
  35.3521830  13.1431060  71.7428640  34.8516530  13.0901610  73.1706400
  48.7924410   6.4346800  73.2841070  48.5046110   6.8959490  74.0718950
  49.5876580   5.9744570  73.5525290  41.0092810   9.9272920  73.2145040
  41.0002910  10.6602610  72.5989550  40.0891170   9.6804500  73.3072000
  36.6099450   5.1487810  73.9591800  36.0027400   5.8886710  73.9687100
  37.0848800   5.2387170  73.1330000  43.9952410   9.9901160  71.8770230
  44.0964390   9.7865150  70.9472210  43.0954150   9.7359440  72.0818010
  42.6370520  12.5087480  76.5717900  42.8912020  12.4708870  75.6497270
  41.6883000  12.3820810  76.5646150  48.6423100   3.4279360  78.1476410
  47.7013240   3.4429590  78.3224100  48.9567170   2.6415320  78.5936710
  38.6204740   5.1098960  71.7080370  39.3868010   4.9980320  72.2705800
  38.6979430   4.4136930  71.0557140  37.3151500   2.5424030  72.3913260
  37.3955090   1.5951540  72.5030660  38.2071250   2.8730910  72.4973920
  50.6448680  10.5988210  79.8230670  50.7696100  11.4219380  80.2954480
  51.5114240  10.3878940  79.4754820  38.1166210  12.6919420  79.4947800
  38.8528690  12.1434880  79.7656370  38.5007130  13.5575430  79.3553790
  35.0011690   8.7592990  75.3689310  34.0751470   9.0014130  75.3594720
  35.4668120   9.5867250  75.2474060  41.2268520  11.8649730  71.3173370
  42.0197130  12.1538560  70.8655160  40.7072870  11.4341900  70.6385850
  50.2798690  11.0919860  72.7410110  49.9940200  10.6785000  71.9264290
  50.0818240  12.0207570  72.6210630  41.7445920   7.0853140  71.1815720
  41.6396560   6.4705490  71.9077100  41.5770140   6.5619030  70.3978730
  44.9848650   6.1473170  71.7857710  44.4358750   6.5942470  72.4300450
  45.6067910   5.6422420  72.3095380  40.6523770   5.1064090  73.6823010
  41.0740190   4.9403960  74.5254400  40.7774610   4.2964320  73.1878150
  43.1651410   4.1301700  70.9300110  43.6857070   3.4150720  70.5641260
  43.8119810   4.7687570  71.2300620  43.7299440  12.2113310  73.2201850
  44.6250230  12.5498280  73.2420610  43.7617070  11.4892720  72.5926130
  37.3695600   7.5840360  71.4488850  37.8070470   8.1270030  72.1046430
  37.8543330   6.7587310  71.4585190  34.5841400  10.3729390  78.9009110
  34.9144410   9.5050450  78.6687750  35.0132400  10.5787910  79.7314070
  39.1803320   8.7038400  76.5611080  38.8798860   8.5803370  77.4614990
  39.0740810   7.8446990  76.1526810  35.0731610  11.2399980  81.6390740
  34.6362600  11.4200780  82.4714890  35.6409290  11.9974600  81.4972460
  51.9495240   8.4834800  71.2637760  51.1188200   8.5511450  71.7344990
  52.1267070   9.3738920  70.9604620  51.4051700   5.2282280  73.7671960
  52.1670610   5.7978930  73.8731650  51.4206070   4.6609480  74.5380270
  34.9056040   3.7520210  77.9979620  34.2504880   3.4831850  77.3539320
  35.7433990   3.6424690  77.5481600  52.4111670   6.0832380  78.6113890
  52.7820500   5.2999700  78.2049860  53.0513600   6.7721480  78.4331190
  51.4570870   5.5216650  70.9244480  51.7319710   6.4295530  70.7963700
  51.2681610   5.4579180  71.8606470  51.3536210   3.4585640  75.9173910
  50.9779810   2.6913570  75.4855200  50.6239330   3.8408340  76.4048840
  50.8076890   1.7683000  82.7400700  49.8579600   1.7346540  82.8545690
  50.9889900   2.6783110  82.5050470  49.4521480  12.2187560  77.5512480
  50.0480550  11.8972130  76.8746900  49.7099630  11.7459380  78.3425750
  50.0033690  12.8682860  81.3810210  49.5436660  13.6198670  81.0068230
  49.3746150  12.1489330  81.3225010  40.4329410  11.1771100  80.5558340
  40.9494430  10.5658460  80.0306600  41.0826790  11.6799880  81.0469350
  43.1724910  12.0679590  81.3827320  43.4602720  11.8133890  80.5060330
  43.6848130  11.5156950  81.9732890  35.1114310  12.2800490  76.9805690
  34.9436350  11.6471170  77.6787580  34.2448820  12.4859890  76.6299880
  36.7177010  10.9733720  74.4255830  36.1924630  11.3541750  73.7217790
  36.6421590  11.5984490  75.1465540  51.4742330  12.5321260  75.7469770
  51.6494520  11.8459000  75.1030690  50.7763900  13.0568310  75.3546440
  39.3169980  12.9216100  73.3005080  40.0488800  12.6375380  72.7528970
  39.5763650  12.6829380  74.1904460  38.4784770   9.0380830  73.3051410
  37.8493650   9.5065930  73.8537240  38.5932600   8.1930050  73.7397600
  45.9334490   3.0886490  59.4552610  45.8528540   2.1741100  59.1844320
  45.5198910   3.5853560  58.7492320  44.0652530   4.8665510  61.3361880
  43.2894630   4.3865950  61.6260450  44.7165460   4.1871160  61.1618040
  38.0818360   5.1785320  62.2137640  37.2503240   4.9234030  62.6134150
  38.6899340   5.2496090  62.9495560  48.0859960   9.2725700  60.1161010
  47.6241490   8.5012940  60.4448180  48.8985510   9.2991770  60.6213460
  38.0619620   9.2125410  62.4095660  38.3647660   8.3223150  62.2305880
  38.8063210   9.7695630  62.1817910  34.4543320   2.7392860  61.8819730
  35.0259430   1.9715060  61.8823370  34.4544860   3.0381620  60.9726340
  44.3123270  11.5583710  59.7365000  43.6934710  12.0141210  59.1659440
  45.1675050  11.7135170  59.3354700  43.5061520   7.5422700  61.3432040
  43.4369800   6.6012640  61.1821170  44.2681380   7.6324110  61.9154610
  45.1786620   6.4422950  57.1296910  44.5603890   6.9072400  56.5659630
  45.6909870   7.1350430  57.5466420  40.0418380   5.9698820  63.8080510
  39.7087760   6.5967740  64.4501580  40.2185060   6.4960700  63.0282180
  39.2537480   7.9379620  65.6229690  39.8711480   8.6130700  65.3414140
  38.3930600   8.3467600  65.5317190  34.5469820   7.1279480  54.5036540
  34.1697800   7.6166580  53.7721440  34.8042890   7.8004760  55.1343070
  50.1715070   9.4019030  63.5384330  49.4878590  10.0718140  63.5301000
  50.7109360   9.5999680  62.7729190  47.7073810  11.2463160  62.2529510
  47.7200970  10.8425450  61.3851770  47.1549030  12.0210450  62.1490940
  49.0019230   7.9679380  57.3419680  48.8915560   7.0253710  57.4669100
  48.9987480   8.3295020  58.2282440  47.1059250   6.1493000  63.5812120
  47.5228040   5.9353110  62.7465580  47.8299070   6.4065790  64.1520740
  44.5439510   3.5944700  56.6982170  43.6168790   3.5282080  56.9270640
  44.6964330   4.5324830  56.5837410  51.0521350   4.5480220  63.6728360
  50.2239980   4.6173310  63.1978490  51.6471830   5.1334530  63.2044190
  48.5736800   5.1565000  57.2017420  47.9549220   4.8184550  56.5543720
  48.5561250   4.5124760  57.9096610  40.1496150   4.1209440  59.4801900
  39.7453150   3.4086690  58.9847800  40.2359270   3.7762680  60.3689940
  40.6177850   7.8077000  61.6441110  40.3206140   7.2022470  60.9648890
  41.5677670   7.8454310  61.5330470  48.7063460  11.3808870  65.3064210
  48.2294020  12.1881060  65.1136820  48.0225250  10.7287200  65.4590420
  39.7096280   7.5458690  68.2948910  38.8124810   7.7698660  68.5422310
  39.7349150   7.6693630  67.3460310  46.7501500   4.3951810  54.2090170
  47.1894780   3.5574240  54.0627990  47.4629920   5.0281210  54.2954310
  38.5367500   4.4172010  66.8706280  38.3975270   5.2894810  67.2393680
  37.6548860   4.0744820  66.7254220  44.8596880   9.3347880  58.1771410
  45.2992790  10.0772210  57.7626800  44.7983770   9.5774450  59.1010370
  40.3347850  10.3593710  69.0791430  40.3063280  10.7636660  68.2119860
  40.1712820   9.4304070  68.9163030  36.8500780   3.0154420  56.9808550
  36.7298380   3.7416510  56.3689820  36.5401670   2.2457330  56.5036460
  52.2862670  11.1420810  70.3755600  52.7622390  11.6203700  71.0544680
  52.9069830  11.0738300  69.6501100  34.4886150   6.1869560  62.7877190
  34.5666570   6.3218330  61.8432910  35.1027830   5.4785450  62.9805310
  35.7333780   7.8869750  59.1983370  35.3261860   8.0284340  58.3436970
  36.6246790   7.6029910  58.9954580  51.6895920   8.3333660  67.5355610
  51.8158980   8.0945540  66.6172790  51.7317300   7.5018200  68.0077690
  45.5512660  12.0361660  66.1050420  46.0657330  11.9469670  66.9072850
  44.7081740  12.3821360  66.3978330  47.5267060  12.3217000  55.5334420
  47.3668200  12.0319940  56.4316250  47.3613770  11.5457130  54.9979650
  40.0055440  12.1015530  57.3106040  39.8297920  11.1851070  57.0973840
  39.1511180  12.4602820  57.5503840  47.2293190   9.8304560  54.0932420
  46.5358350   9.8281850  53.4334700  47.9716050   9.4063880  53.6626590
  46.7943120  11.4567270  58.1680910  47.2500070  10.6756650  58.4819530
  47.1335640  12.1674090  58.7122090  34.5445670   7.2283730  65.3271650
  34.7076710   6.7589090  64.5091020  35.0098120   6.7207290  65.9920490
  45.5296430   2.7155720  62.8158180  44.7977550   3.2242530  63.1648280
  45.1320770   1.8985700  62.5146960  41.0415470   2.7023140  53.6100730
  40.4732370   2.2541390  52.9836640  41.7504470   3.0615920  53.0765880
  36.1184650   6.6035160  67.4867460  35.7339440   5.9628830  68.0850420
  36.4296840   7.3071280  68.0562190  42.2681790   3.4511700  62.9676080
  42.6351920   2.9770270  63.7137420  42.0786850   4.3253270  63.3084420
  40.0581160   2.4920340  65.2860290  39.7538230   3.3712320  65.5110650
  41.0127620   2.5520130  65.3217730  38.5862950   6.6981330  55.8827140
  37.8125210   6.1578950  55.7225860  39.3157580   6.1787940  55.5444900
  49.3450930   5.6946690  61.6753530  50.0650050   6.1901980  61.2849640
  49.1432750   5.0164580  61.0307400  44.7269730   5.7655750  67.5622530
  44.6607040   4.8451420  67.3080120  44.0974870   5.8631190  68.2767170
  38.6300350   6.3661710  59.5205950  39.1479020   5.5629970  59.4662840
  38.1784370   6.3040850  60.3622780  43.5169850   7.6327990  54.7933250
  43.8585550   8.3770220  54.2976570  42.6882560   7.9459110  55.1558080
  36.1144890   3.3323080  66.4331650  35.7559830   3.9976930  67.0204990
  35.8199450   2.5006630  66.8044270  39.3158010   3.7907320  69.3171200
  39.0158150   3.9364500  68.4199020  40.0869250   3.2312610  69.2244590
  44.6586460   8.5876320  67.3126330  44.6731000   7.6557280  67.0945240
  43.9511560   8.6736080  67.9516100  49.7923530   2.7716140  53.5824940
  49.7087250   3.2030360  52.7321380  50.5117720   3.2314490  54.0151760
  50.8697670   5.2283660  66.6594910  50.1445860   5.8212440  66.4624300
  51.3973130   5.2207200  65.8608280  50.8210780   9.6258400  56.3107070
  50.1786940   8.9714020  56.5850790  50.4341440  10.0313490  55.5347740
  46.3997260   6.9543830  60.1578760  46.7521080   6.3571960  59.4980130
  45.5159590   6.6288060  60.3287010  42.4860540   7.7141520  57.5649170
  43.1731670   8.2610730  57.9456760  41.6992960   8.2582250  57.5998780
  34.6252940   3.3314340  53.0566250  35.4947790   3.6139140  53.3402170
  34.1343260   4.1450210  52.9415060  41.7887750   4.7187550  57.1774530
  42.2450530   5.5292800  57.4034720  41.4375960   4.4010690  58.0093020
  44.0920360  10.2293890  64.4066830  44.7362580  10.4353270  65.0840250
  44.4549800   9.4682290  63.9537680  45.3652440   8.2326240  63.1244280
  46.0074670   7.5319400  63.2376450  45.8901790   9.0124680  62.9441170
  49.2108160   8.5174860  52.8483420  48.9845740   7.8005300  53.4408060
  48.8204360   8.2687300  52.0105170  47.1390060   9.0321140  66.3280340
  47.4746300   9.6187830  67.0058260  46.2190400   8.9013850  66.5578130
  34.9924190  12.5441720  53.6227880  35.3521830  13.1431060  52.9685150
  34.8516530  13.0901610  54.3962910  48.7924410   6.4346800  54.5097580
  48.5046110   6.8959490  55.2975460  49.5876580   5.9744570  54.7781800
  34.9766050  10.8096580  68.0970280  35.0857170   9.8691320  67.9565670
  34.3246610  11.0751330  67.4484010  42.9678640   9.0812470  69.4968400
  42.6475510   8.3621710  70.0414090  42.2937000   9.7567540  69.5704460
  41.0092810   9.9272920  54.4401550  41.0002910  10.6602610  53.8246060
  40.0891170   9.6804500  54.5328510  36.6099450   5.1487810  55.1848310
  36.0027400   5.8886710  55.1943610  37.0848800   5.2387170  54.3586510
  43.9952410   9.9901160  53.1026740  44.0964390   9.7865150  52.1728720
  43.0954150   9.7359440  53.3074520  42.6370520  12.5087480  57.7974410
  42.8912020  12.4708870  56.8753780  41.6883000  12.3820810  57.7902660
  48.6423100   3.4279360  59.3732920  47.7013240   3.4429590  59.5480610
  48.9567170   2.6415320  59.8193220  38.6204740   5.1098960  52.9336880
  39.3868010   4.9980320  53.4962310  38.6979430   4.4136930  52.2813650
  37.3151500   2.5424030  53.6169770  37.3955090   1.5951540  53.7287170
  38.2071250   2.8730910  53.7230430  50.6448680  10.5988210  61.0487180
  50.7696100  11.4219380  61.5210990  51.5114240  10.3878940  60.7011330
  38.1166210  12.6919420  60.7204310  38.8528690  12.1434880  60.9912880
  38.5007130  13.5575430  60.5810300  35.0011690   8.7592990  56.5945820
  34.0751470   9.0014130  56.5851230  35.4668120   9.5867250  56.4730570
  37.1224490  11.8765490  69.9089890  37.9237220  12.1977540  70.3225290
  36.6076310  11.5161070  70.6309800  41.2268520  11.8649730  52.5429880
  42.0197130  12.1538560  52.0911670  40.7072870  11.4341900  51.8642360
  45.9589120   7.9845360  69.8565300  45.3527280   8.0076960  69.1161050
  45.6543230   7.2528400  70.3932550  47.3889490  11.7125650  68.4674710
  48.3411240  11.6283670  68.4174950  47.2417710  12.3767360  69.1408500
  50.2798690  11.0919860  53.9666620  49.9940200  10.6785000  53.1520800
  50.0818240  12.0207570  53.8467140  34.8422300   4.3638950  68.8525940
  35.3461320   3.7846230  69.4242170  34.1029720   4.6479180  69.3902310
  41.7445920   7.0853140  52.4072230  41.6396560   6.4705490  53.1333610
  41.5770140   6.5619030  51.6235240  41.8960240   5.7709940  68.3861460
  41.1305910   6.3394940  68.3016130  42.0776200   5.4786150  67.4929690
  44.9848650   6.1473170  53.0114220  44.4358750   6.5942470  53.6556960
  45.6067910   5.6422420  53.5351890  49.0383590   7.5015270  68.9436480
  49.7793060   7.8391030  68.4403940  48.2756270   7.6707330  68.3906250
  36.8745380   2.5068540  69.7476010  36.9150720   2.2082410  70.6561240
  37.7290880   2.9076150  69.5883530  40.6523770   5.1064090  54.9079520
  41.0740190   4.9403960  55.7510910  40.7774610   4.2964320  54.4134660
  43.1651410   4.1301700  52.1556620  43.6857070   3.4150720  51.7897770
  43.8119810   4.7687570  52.4557130  47.7129250   5.5530100  67.4791690
  48.1270270   5.7075180  68.3282110  46.7780250   5.6785320  67.6417470
  48.1851420   2.8926260  69.4830840  48.7672190   2.1378580  69.3951320
  48.3613190   3.4233700  68.7062320  42.4744480   5.5050580  65.4487620
  42.8932590   6.3483310  65.2763860  41.5553110   5.6422620  65.2194400
  44.8108380   3.2366760  66.8325460  44.9304590   2.6407900  67.5720300
  45.6702380   3.2736450  66.4126760  47.1496280   3.7903950  65.4087970
  46.6231500   4.3146570  64.8053110  47.4927620   4.4231340  66.0397700
  40.3251900  11.8103590  66.5645350  39.7872990  12.5349650  66.2454050
  40.5785860  11.3333930  65.7742690  43.1814110  13.0454800  66.8232000
  43.1072810  13.9489940  67.1304370  42.2792950  12.7266700  66.7954070
  43.7299440  12.2113310  54.4458360  44.6250230  12.5498280  54.4677120
  43.7617070  11.4892720  53.8182640  37.3695600   7.5840360  52.6745360
  37.8070470   8.1270030  53.3302940  37.8543330   6.7587310  52.6841700
  34.5841400  10.3729390  60.1265620  34.9144410   9.5050450  59.8944260
  35.0132400  10.5787910  60.9570580  39.1803320   8.7038400  57.7867590
  38.8798860   8.5803370  58.6871500  39.0740810   7.8446990  57.3783320
  35.0731610  11.2399980  62.8647250  34.6362600  11.4200780  63.6971400
  35.6409290  11.9974600  62.7228970  50.7093790  10.7416980  67.1524560
  50.1095780  10.8009540  66.4088480  50.8387690   9.8021960  67.2821410
  51.9495240   8.4834800  52.4894270  51.1188200   8.5511450  52.9601500
  52.1267070   9.3738920  52.1861130  51.4051700   5.2282280  54.9928470
  52.1670610   5.7978930  55.0988160  51.4206070   4.6609480  55.7636780
  34.9056040   3.7520210  59.2236130  34.2504880   3.4831850  58.5795830
  35.7433990   3.6424690  58.7738110  52.4111670   6.0832380  59.8370400
  52.7820500   5.2999700  59.4306370  53.0513600   6.7721480  59.6587700
  49.3945430   7.4668960  65.2500720  48.5805270   7.8966120  65.5126510
  49.8019630   8.0787370  64.6369770  51.4570870   5.5216650  52.1500990
  51.7319710   6.4295530  52.0220210  51.2681610   5.4579180  53.0862980
  51.3536210   3.4585640  57.1430420  50.9779810   2.6913570  56.7111710
  50.6239330   3.8408340  57.6305350  35.9431970   4.1372780  63.7639470
  36.3105010   4.0500180  64.6435490  35.3742790   3.3739330  63.6646330
  50.7435830   2.6057160  66.7769940  50.5121920   2.3769910  65.8767890
  51.0040380   3.5256710  66.7314830  50.8076890   1.7683000  63.9657210
  49.8579600   1.7346540  64.0802200  50.9889900   2.6783110  63.7306980
  49.4521480  12.2187560  58.7768990  50.0480550  11.8972130  58.1003410
  49.7099630  11.7459380  59.5682260  37.3584050   8.6505470  68.9259620
  37.3153680   8.2798380  69.8074080  37.4895060   9.5883040  69.0661440
  41.0590080  10.2065060  64.5269340  40.8181440  10.4739620  63.6399860
  41.9992720  10.3770790  64.5820200  52.3194240  12.2259440  65.3279980
  51.8252520  12.6228310  64.6107110  51.7107530  11.6008650  65.7217260
  37.1972080  11.5967720  66.0457400  36.6032400  11.4652420  66.7847440
  37.1895920  10.7605860  65.5799500  50.0033690  12.8682860  62.6066720
  49.5436660  13.6198670  62.2324740  49.3746150  12.1489330  62.5481520
  36.8284310   8.9626100  64.9965440  36.1018370   8.3431390  64.9291390
  36.8893460   9.3566710  64.1263520  40.4329410  11.1771100  61.7814850
  40.9494430  10.5658460  61.2563110  41.0826790  11.6799880  62.2725860
  43.1724910  12.0679590  62.6083830  43.4602720  11.8133890  61.7316840
  43.6848130  11.5156950  63.1989400  35.1114310  12.2800490  58.2062200
  34.9436350  11.6471170  58.9044090  34.2448820  12.4859890  57.8556390
  36.7177010  10.9733720  55.6512340  36.1924630  11.3541750  54.9474300
  36.6421590  11.5984490  56.3722050  43.2397270  12.9895690  69.9752030
  44.1664580  12.7539960  70.0187990  43.2247700  13.8167690  69.4938060
  51.4742330  12.5321260  56.9726280  51.6494520  11.8459000  56.3287200
  50.7763900  13.0568310  56.5802950  39.3169980  12.9216100  54.5261590
  40.0488800  12.6375380  53.9785480  39.5763650  12.6829380  55.4160970
  38.4784770   9.0380830  54.5307920  37.8493650   9.5065930  55.0793750
  38.5932600   8.1930050  54.9654110  49.8074830  12.2165550  69.7993070
  50.6000150  11.7214780  69.5919030  50.1007980  12.8955690  70.4068680
  45.9334490   3.0886490  40.6809120  45.8528540   2.1741100  40.4100830
  45.5198910   3.5853560  39.9748830  44.0652530   4.8665510  42.5618390
  43.2894630   4.3865950  42.8516960  44.7165460   4.1871160  42.3874550
  38.0818360   5.1785320  43.4394150  37.2503240   4.9234030  43.8390660
  38.6899340   5.2496090  44.1752070  48.0859960   9.2725700  41.3417520
  47.6241490   8.5012940  41.6704690  48.8985510   9.2991770  41.8469970
  38.0619620   9.2125410  43.6352170  38.3647660   8.3223150  43.4562390
  38.8063210   9.7695630  43.4074420  34.4543320   2.7392860  43.1076240
  35.0259430   1.9715060  43.1079880  34.4544860   3.0381620  42.1982850
  44.3123270  11.5583710  40.9621510  43.6934710  12.0141210  40.3915950
  45.1675050  11.7135170  40.5611210  43.5061520   7.5422700  42.5688550
  43.4369800   6.6012640  42.4077680  44.2681380   7.6324110  43.1411120
  45.1786620   6.4422950  38.3553420  44.5603890   6.9072400  37.7916140
  45.6909870   7.1350430  38.7722930  40.0418380   5.9698820  45.0337020
  39.7087760   6.5967740  45.6758090  40.2185060   6.4960700  44.2538690
  39.2537480   7.9379620  46.8486200  39.8711480   8.6130700  46.5670650
  38.3930600   8.3467600  46.7573700  34.5469820   7.1279480  35.7293050
  34.1697800   7.6166580  34.9977950  34.8042890   7.8004760  36.3599580
  50.1715070   9.4019030  44.7640840  49.4878590  10.0718140  44.7557510
  50.7109360   9.5999680  43.9985700  47.7073810  11.2463160  43.4786020
  47.7200970  10.8425450  42.6108280  47.1549030  12.0210450  43.3747450
  49.0019230   7.9679380  38.5676190  48.8915560   7.0253710  38.6925610
  48.9987480   8.3295020  39.4538950  47.1059250   6.1493000  44.8068630
  47.5228040   5.9353110  43.9722090  47.8299070   6.4065790  45.3777250
  44.5439510   3.5944700  37.9238680  43.6168790   3.5282080  38.1527150
  44.6964330   4.5324830  37.8093920  51.0521350   4.5480220  44.8984870
  50.2239980   4.6173310  44.4235000  51.6471830   5.1334530  44.4300700
  48.5736800   5.1565000  38.4273930  47.9549220   4.8184550  37.7800230
  48.5561250   4.5124760  39.1353120  40.1496150   4.1209440  40.7058410
  39.7453150   3.4086690  40.2104310  40.2359270   3.7762680  41.5946450
  40.6177850   7.8077000  42.8697620  40.3206140   7.2022470  42.1905400
  41.5677670   7.8454310  42.7586980  48.7063460  11.3808870  46.5320720
  48.2294020  12.1881060  46.3393330  48.0225250  10.7287200  46.6846930
  39.7096280   7.5458690  49.5205420  38.8124810   7.7698660  49.7678820
  39.7349150   7.6693630  48.5716820  46.7501500   4.3951810  35.4346680
  47.1894780   3.5574240  35.2884500  47.4629920   5.0281210  35.5210820
  38.5367500   4.4172010  48.0962790  38.3975270   5.2894810  48.4650190
  37.6548860   4.0744820  47.9510730  44.8596880   9.3347880  39.4027920
  45.2992790  10.0772210  38.9883310  44.7983770   9.5774450  40.3266880
  40.3347850  10.3593710  50.3047940  40.3063280  10.7636660  49.4376370
  40.1712820   9.4304070  50.1419540  36.8500780   3.0154420  38.2065060
  36.7298380   3.7416510  37.5946330  36.5401670   2.2457330  37.7292970
  52.2862670  11.1420810  51.6012110  52.7622390  11.6203700  52.2801190
  52.9069830  11.0738300  50.8757610  34.4886150   6.1869560  44.0133700
  34.5666570   6.3218330  43.0689420  35.1027830   5.4785450  44.2061820
  35.7333780   7.8869750  40.4239880  35.3261860   8.0284340  39.5693480
  36.6246790   7.6029910  40.2211090  51.6895920   8.3333660  48.7612120
  51.8158980   8.0945540  47.8429300  51.7317300   7.5018200  49.2334200
  45.5512660  12.0361660  47.3306930  46.0657330  11.9469670  48.1329360
  44.7081740  12.3821360  47.6234840  47.5267060  12.3217000  36.7590930
  47.3668200  12.0319940  37.6572760  47.3613770  11.5457130  36.2236160
  40.0055440  12.1015530  38.5362550  39.8297920  11.1851070  38.3230350
  39.1511180  12.4602820  38.7760350  47.2293190   9.8304560  35.3188930
  46.5358350   9.8281850  34.6591210  47.9716050   9.4063880  34.8883100
  46.7943120  11.4567270  39.3937420  47.2500070  10.6756650  39.7076040
  47.1335640  12.1674090  39.9378600  34.5445670   7.2283730  46.5528160
  34.7076710   6.7589090  45.7347530  35.0098120   6.7207290  47.2177000
  45.5296430   2.7155720  44.0414690  44.7977550   3.2242530  44.3904790
  45.1320770   1.8985700  43.7403470  41.0415470   2.7023140  34.8357240
  40.4732370   2.2541390  34.2093150  41.7504470   3.0615920  34.3022390
  36.1184650   6.6035160  48.7123970  35.7339440   5.9628830  49.3106930
  36.4296840   7.3071280  49.2818700  42.2681790   3.4511700  44.1932590
  42.6351920   2.9770270  44.9393930  42.0786850   4.3253270  44.5340930
  40.0581160   2.4920340  46.5116800  39.7538230   3.3712320  46.7367160
  41.0127620   2.5520130  46.5474240  38.5862950   6.6981330  37.1083650
  37.8125210   6.1578950  36.9482370  39.3157580   6.1787940  36.7701410
  49.3450930   5.6946690  42.9010040  50.0650050   6.1901980  42.5106150
  49.1432750   5.0164580  42.2563910  44.7269730   5.7655750  48.7879040
  44.6607040   4.8451420  48.5336630  44.0974870   5.8631190  49.5023680
  38.6300350   6.3661710  40.7462460  39.1479020   5.5629970  40.6919350
  38.1784370   6.3040850  41.5879290  43.5169850   7.6327990  36.0189760
  43.8585550   8.3770220  35.5233080  42.6882560   7.9459110  36.3814590
  36.1144890   3.3323080  47.6588160  35.7559830   3.9976930  48.2461500
  35.8199450   2.5006630  48.0300780  39.3158010   3.7907320  50.5427710
  39.0158150   3.9364500  49.6455530  40.0869250   3.2312610  50.4501100
  44.6586460   8.5876320  48.5382840  44.6731000   7.6557280  48.3201750
  43.9511560   8.6736080  49.1772610  49.7923530   2.7716140  34.8081450
  49.7087250   3.2030360  33.9577890  50.5117720   3.2314490  35.2408270
  50.8697670   5.2283660  47.8851420  50.1445860   5.8212440  47.6880810
  51.3973130   5.2207200  47.0864790  50.8210780   9.6258400  37.5363580
  50.1786940   8.9714020  37.8107300  50.4341440  10.0313490  36.7604250
  46.3997260   6.9543830  41.3835270  46.7521080   6.3571960  40.7236640
  45.5159590   6.6288060  41.5543520  42.4860540   7.7141520  38.7905680
  43.1731670   8.2610730  39.1713270  41.6992960   8.2582250  38.8255290
  34.6252940   3.3314340  34.2822760  35.4947790   3.6139140  34.5658680
  34.1343260   4.1450210  34.1671570  41.7887750   4.7187550  38.4031040
  42.2450530   5.5292800  38.6291230  41.4375960   4.4010690  39.2349530
  44.0920360  10.2293890  45.6323340  44.7362580  10.4353270  46.3096760
  44.4549800   9.4682290  45.1794190  45.3652440   8.2326240  44.3500790
  46.0074670   7.5319400  44.4632960  45.8901790   9.0124680  44.1697680
  49.2108160   8.5174860  34.0739930  48.9845740   7.8005300  34.6664570
  48.8204360   8.2687300  33.2361680  47.1390060   9.0321140  47.5536850
  47.4746300   9.6187830  48.2314770  46.2190400   8.9013850  47.7834640
  34.9924190  12.5441720  34.8484390  35.3521830  13.1431060  34.1941660
  34.8516530  13.0901610  35.6219420  48.7924410   6.4346800  35.7354090
  48.5046110   6.8959490  36.5231970  49.5876580   5.9744570  36.0038310
  34.9766050  10.8096580  49.3226790  35.0857170   9.8691320  49.1822180
  34.3246610  11.0751330  48.6740520  42.9678640   9.0812470  50.7224910
  42.6475510   8.3621710  51.2670600  42.2937000   9.7567540  50.7960970
  41.0092810   9.9272920  35.6658060  41.0002910  10.6602610  35.0502570
  40.0891170   9.6804500  35.7585020  36.6099450   5.1487810  36.4104820
  36.0027400   5.8886710  36.4200120  37.0848800   5.2387170  35.5843020
  43.9952410   9.9901160  34.3283250  44.0964390   9.7865150  33.3985230
  43.0954150   9.7359440  34.5331030  42.6370520  12.5087480  39.0230920
  42.8912020  12.4708870  38.1010290  41.6883000  12.3820810  39.0159170
  48.6423100   3.4279360  40.5989430  47.7013240   3.4429590  40.7737120
  48.9567170   2.6415320  41.0449730  38.6204740   5.1098960  34.1593390
  39.3868010   4.9980320  34.7218820  38.6979430   4.4136930  33.5070160
  37.3151500   2.5424030  34.8426280  37.3955090   1.5951540  34.9543680
  38.2071250   2.8730910  34.9486940  50.6448680  10.5988210  42.2743690
  50.7696100  11.4219380  42.7467500  51.5114240  10.3878940  41.9267840
  38.1166210  12.6919420  41.9460820  38.8528690  12.1434880  42.2169390
  38.5007130  13.5575430  41.8066810  35.0011690   8.7592990  37.8202330
  34.0751470   9.0014130  37.8107740  35.4668120   9.5867250  37.6987080
  37.1224490  11.8765490  51.1346400  37.9237220  12.1977540  51.5481800
  36.6076310  11.5161070  51.8566310  41.2268520  11.8649730  33.7686390
  42.0197130  12.1538560  33.3168180  40.7072870  11.4341900  33.0898870
  45.9589120   7.9845360  51.0821810  45.3527280   8.0076960  50.3417560
  45.6543230   7.2528400  51.6189060  47.3889490  11.7125650  49.6931220
  48.3411240  11.6283670  49.6431460  47.2417710  12.3767360  50.3665010
  50.2798690  11.0919860  35.1923130  49.9940200  10.6785000  34.3777310
  50.0818240  12.0207570  35.0723650  34.8422300   4.3638950  50.0782450
  35.3461320   3.7846230  50.6498680  34.1029720   4.6479180  50.6158820
  41.7445920   7.0853140  33.6328740  41.6396560   6.4705490  34.3590120
  41.5770140   6.5619030  32.8491750  41.8960240   5.7709940  49.6117970
  41.1305910   6.3394940  49.5272640  42.0776200   5.4786150  48.7186200
  44.9848650   6.1473170  34.2370730  44.4358750   6.5942470  34.8813470
  45.6067910   5.6422420  34.7608400  49.0383590   7.5015270  50.1692990
  49.7793060   7.8391030  49.6660450  48.2756270   7.6707330  49.6162760
  36.8745380   2.5068540  50.9732520  36.9150720   2.2082410  51.8817750
  37.7290880   2.9076150  50.8140040  40.6523770   5.1064090  36.1336030
  41.0740190   4.9403960  36.9767420  40.7774610   4.2964320  35.6391170
  43.1651410   4.1301700  33.3813130  43.6857070   3.4150720  33.0154280
  43.8119810   4.7687570  33.6813640  47.7129250   5.5530100  48.7048200
  48.1270270   5.7075180  49.5538620  46.7780250   5.6785320  48.8673980
  48.1851420   2.8926260  50.7087350  48.7672190   2.1378580  50.6207830
  48.3613190   3.4233700  49.9318830  42.4744480   5.5050580  46.6744130
  42.8932590   6.3483310  46.5020370  41.5553110   5.6422620  46.4450910
  44.8108380   3.2366760  48.0581970  44.9304590   2.6407900  48.7976810
  45.6702380   3.2736450  47.6383270  47.1496280   3.7903950  46.6344480
  46.6231500   4.3146570  46.0309620  47.4927620   4.4231340  47.2654210
  40.3251900  11.8103590  47.7901860  39.7872990  12.5349650  47.4710560
  40.5785860  11.3333930  46.9999200  43.1814110  13.0454800  48.0488510
  43.1072810  13.9489940  48.3560880  42.2792950  12.7266700  48.0210580
  43.7299440  12.2113310  35.6714870  44.6250230  12.5498280  35.6933630
  43.7617070  11.4892720  35.0439150  37.3695600   7.5840360  33.9001870
  37.8070470   8.1270030  34.5559450  37.8543330   6.7587310  33.9098210
  34.5841400  10.3729390  41.3522130  34.9144410   9.5050450  41.1200770
  35.0132400  10.5787910  42.1827090  39.1803320   8.7038400  39.0124100
  38.8798860   8.5803370  39.9128010  39.0740810   7.8446990  38.6039830
  35.0731610  11.2399980  44.0903760  34.6362600  11.4200780  44.9227910
  35.6409290  11.9974600  43.9485480  50.7093790  10.7416980  48.3781070
  50.1095780  10.8009540  47.6344990  50.8387690   9.8021960  48.5077920
  51.9495240   8.4834800  33.7150780  51.1188200   8.5511450  34.1858010
  52.1267070   9.3738920  33.4117640  51.4051700   5.2282280  36.2184980
  52.1670610   5.7978930  36.3244670  51.4206070   4.6609480  36.9893290
  34.9056040   3.7520210  40.4492640  34.2504880   3.4831850  39.8052340
  35.7433990   3.6424690  39.9994620  52.4111670   6.0832380  41.0626910
  52.7820500   5.2999700  40.6562880  53.0513600   6.7721480  40.8844210
  49.3945430   7.4668960  46.4757230  48.5805270   7.8966120  46.7383020
  49.8019630   8.0787370  45.8626280  51.4570870   5.5216650  33.3757500
  51.7319710   6.4295530  33.2476720  51.2681610   5.4579180  34.3119490
  51.3536210   3.4585640  38.3686930  50.9779810   2.6913570  37.9368220
  50.6239330   3.8408340  38.8561860  35.9431970   4.1372780  44.9895980
  36.3105010   4.0500180  45.8692000  35.3742790   3.3739330  44.8902840
  50.7435830   2.6057160  48.0026450  50.5121920   2.3769910  47.1024400
  51.0040380   3.5256710  47.9571340  50.8076890   1.7683000  45.1913720
  49.8579600   1.7346540  45.3058710  50.9889900   2.6783110  44.9563490
  49.4521480  12.2187560  40.0025500  50.0480550  11.8972130  39.3259920
  49.7099630  11.7459380  40.7938770  37.3584050   8.6505470  50.1516130
  37.3153680   8.2798380  51.0330590  37.4895060   9.5883040  50.2917950
  41.0590080  10.2065060  45.7525850  40.8181440  10.4739620  44.8656370
  41.9992720  10.3770790  45.8076710  52.3194240  12.2259440  46.5536490
  51.8252520  12.6228310  45.8363620  51.7107530  11.6008650  46.9473770
  37.1972080  11.5967720  47.2713910  36.6032400  11.4652420  48.0103950
  37.1895920  10.7605860  46.8056010  50.0033690  12.8682860  43.8323230
  49.5436660  13.6198670  43.4581250  49.3746150  12.1489330  43.7738030
  36.8284310   8.9626100  46.2221950  36.1018370   8.3431390  46.1547900
  36.8893460   9.3566710  45.3520030  40.4329410  11.1771100  43.0071360
  40.9494430  10.5658460  42.4819620  41.0826790  11.6799880  43.4982370
  43.1724910  12.0679590  43.8340340  43.4602720  11.8133890  42.9573350
  43.6848130  11.5156950  44.4245910  35.1114310  12.2800490  39.4318710
  34.9436350  11.6471170  40.1300600  34.2448820  12.4859890  39.0812900
  36.7177010  10.9733720  36.8768850  36.1924630  11.3541750  36.1730810
  36.6421590  11.5984490  37.5978560  43.2397270  12.9895690  51.2008540
  44.1664580  12.7539960  51.2444500  43.2247700  13.8167690  50.7194570
  39.3169980  12.9216100  35.7518100  40.0488800  12.6375380  35.2041990
  39.5763650  12.6829380  36.6417480  38.4784770   9.0380830  35.7564430
  37.8493650   9.5065930  36.3050260  38.5932600   8.1930050  36.1910620
  49.8074830  12.2165550  51.0249580  50.6000150  11.7214780  50.8175540
  50.1007980  12.8955690  51.6325190  45.9334490   3.0886490  21.9065630
  45.8528540   2.1741100  21.6357340  45.5198910   3.5853560  21.2005340
  44.0652530   4.8665510  23.7874900  43.2894630   4.3865950  24.0773470
  44.7165460   4.1871160  23.6131060  38.0818360   5.1785320  24.6650660
  37.2503240   4.9234030  25.0647170  38.6899340   5.2496090  25.4008580
  48.0859960   9.2725700  22.5674030  47.6241490   8.5012940  22.8961200
  48.8985510   9.2991770  23.0726480  38.0619620   9.2125410  24.8608680
  38.3647660   8.3223150  24.6818900  38.8063210   9.7695630  24.6330930
  34.4543320   2.7392860  24.3332750  35.0259430   1.9715060  24.3336390
  34.4544860   3.0381620  23.4239360  44.3123270  11.5583710  22.1878020
  43.6934710  12.0141210  21.6172460  45.1675050  11.7135170  21.7867720
  43.5061520   7.5422700  23.7945060  43.4369800   6.6012640  23.6334190
  44.2681380   7.6324110  24.3667630  45.1786620   6.4422950  19.5809930
  44.5603890   6.9072400  19.0172650  45.6909870   7.1350430  19.9979440
  40.0418380   5.9698820  26.2593530  39.7087760   6.5967740  26.9014600
  40.2185060   6.4960700  25.4795200  39.2537480   7.9379620  28.0742710
  39.8711480   8.6130700  27.7927160  38.3930600   8.3467600  27.9830210
  34.5469820   7.1279480  16.9549560  34.1697800   7.6166580  16.2234460
  34.8042890   7.8004760  17.5856090  50.1715070   9.4019030  25.9897350
  49.4878590  10.0718140  25.9814020  50.7109360   9.5999680  25.2242210
  47.7073810  11.2463160  24.7042530  47.7200970  10.8425450  23.8364790
  47.1549030  12.0210450  24.6003960  49.0019230   7.9679380  19.7932700
  48.8915560   7.0253710  19.9182120  48.9987480   8.3295020  20.6795460
  47.1059250   6.1493000  26.0325140  47.5228040   5.9353110  25.1978600
  47.8299070   6.4065790  26.6033760  44.5439510   3.5944700  19.1495190
  43.6168790   3.5282080  19.3783660  44.6964330   4.5324830  19.0350430
  51.0521350   4.5480220  26.1241380  50.2239980   4.6173310  25.6491510
  51.6471830   5.1334530  25.6557210  48.5736800   5.1565000  19.6530440
  47.9549220   4.8184550  19.0056740  48.5561250   4.5124760  20.3609630
  40.1496150   4.1209440  21.9314920  39.7453150   3.4086690  21.4360820
  40.2359270   3.7762680  22.8202960  40.6177850   7.8077000  24.0954130
  40.3206140   7.2022470  23.4161910  41.5677670   7.8454310  23.9843490
  48.7063460  11.3808870  27.7577230  48.2294020  12.1881060  27.5649840
  48.0225250  10.7287200  27.9103440  39.7096280   7.5458690  30.7461930
  38.8124810   7.7698660  30.9935330  39.7349150   7.6693630  29.7973330
  46.7501500   4.3951810  16.6603190  47.1894780   3.5574240  16.5141010
  47.4629920   5.0281210  16.7467330  38.5367500   4.4172010  29.3219300
  38.3975270   5.2894810  29.6906700  37.6548860   4.0744820  29.1767240
  44.8596880   9.3347880  20.6284430  45.2992790  10.0772210  20.2139820
  44.7983770   9.5774450  21.5523390  40.3347850  10.3593710  31.5304450
  40.3063280  10.7636660  30.6632880  40.1712820   9.4304070  31.3676050
  36.8500780   3.0154420  19.4321570  36.7298380   3.7416510  18.8202840
  36.5401670   2.2457330  18.9549480  52.2862670  11.1420810  32.8268620
  52.7622390  11.6203700  33.5057700  52.9069830  11.0738300  32.1014120
  34.4886150   6.1869560  25.2390210  34.5666570   6.3218330  24.2945930
  35.1027830   5.4785450  25.4318330  35.7333780   7.8869750  21.6496390
  35.3261860   8.0284340  20.7949990  36.6246790   7.6029910  21.4467600
  51.6895920   8.3333660  29.9868630  51.8158980   8.0945540  29.0685810
  51.7317300   7.5018200  30.4590710  45.5512660  12.0361660  28.5563440
  46.0657330  11.9469670  29.3585870  44.7081740  12.3821360  28.8491350
  47.5267060  12.3217000  17.9847440  47.3668200  12.0319940  18.8829270
  47.3613770  11.5457130  17.4492670  40.0055440  12.1015530  19.7619060
  39.8297920  11.1851070  19.5486860  39.1511180  12.4602820  20.0016860
  47.2293190   9.8304560  16.5445440  46.5358350   9.8281850  15.8847720
  47.9716050   9.4063880  16.1139610  46.7943120  11.4567270  20.6193930
  47.2500070  10.6756650  20.9332550  47.1335640  12.1674090  21.1635110
  34.5445670   7.2283730  27.7784670  34.7076710   6.7589090  26.9604040
  35.0098120   6.7207290  28.4433510  45.5296430   2.7155720  25.2671200
  44.7977550   3.2242530  25.6161300  45.1320770   1.8985700  24.9659980
  41.0415470   2.7023140  16.0613750  40.4732370   2.2541390  15.4349660
  41.7504470   3.0615920  15.5278900  36.1184650   6.6035160  29.9380480
  35.7339440   5.9628830  30.5363440  36.4296840   7.3071280  30.5075210
  42.2681790   3.4511700  25.4189100  42.6351920   2.9770270  26.1650440
  42.0786850   4.3253270  25.7597440  40.0581160   2.4920340  27.7373310
  39.7538230   3.3712320  27.9623670  41.0127620   2.5520130  27.7730750
  38.5862950   6.6981330  18.3340160  37.8125210   6.1578950  18.1738880
  39.3157580   6.1787940  17.9957920  49.3450930   5.6946690  24.1266550
  50.0650050   6.1901980  23.7362660  49.1432750   5.0164580  23.4820420
  44.7269730   5.7655750  30.0135550  44.6607040   4.8451420  29.7593140
  44.0974870   5.8631190  30.7280190  38.6300350   6.3661710  21.9718970
  39.1479020   5.5629970  21.9175860  38.1784370   6.3040850  22.8135800
  43.5169850   7.6327990  17.2446270  43.8585550   8.3770220  16.7489590
  42.6882560   7.9459110  17.6071100  36.1144890   3.3323080  28.8844670
  35.7559830   3.9976930  29.4718010  35.8199450   2.5006630  29.2557290
  39.3158010   3.7907320  31.7684220  39.0158150   3.9364500  30.8712040
  40.0869250   3.2312610  31.6757610  44.6586460   8.5876320  29.7639350
  44.6731000   7.6557280  29.5458260  43.9511560   8.6736080  30.4029120
  49.7923530   2.7716140  16.0337960  49.7087250   3.2030360  15.1834400
  50.5117720   3.2314490  16.4664780  50.8697670   5.2283660  29.1107930
  50.1445860   5.8212440  28.9137320  51.3973130   5.2207200  28.3121300
  50.8210780   9.6258400  18.7620090  50.1786940   8.9714020  19.0363810
  50.4341440  10.0313490  17.9860760  46.3997260   6.9543830  22.6091780
  46.7521080   6.3571960  21.9493150  45.5159590   6.6288060  22.7800030
  42.4860540   7.7141520  20.0162190  43.1731670   8.2610730  20.3969780
  41.6992960   8.2582250  20.0511800  34.6252940   3.3314340  15.5079270
  35.4947790   3.6139140  15.7915190  34.1343260   4.1450210  15.3928080
  41.7887750   4.7187550  19.6287550  42.2450530   5.5292800  19.8547740
  41.4375960   4.4010690  20.4606040  44.0920360  10.2293890  26.8579850
  44.7362580  10.4353270  27.5353270  44.4549800   9.4682290  26.4050700
  45.3652440   8.2326240  25.5757300  46.0074670   7.5319400  25.6889470
  45.8901790   9.0124680  25.3954190  49.2108160   8.5174860  15.2996440
  48.9845740   7.8005300  15.8921080  48.8204360   8.2687300  14.4618190
  47.1390060   9.0321140  28.7793360  47.4746300   9.6187830  29.4571280
  46.2190400   8.9013850  29.0091150  34.9924190  12.5441720  16.0740900
  35.3521830  13.1431060  15.4198170  34.8516530  13.0901610  16.8475930
  48.7924410   6.4346800  16.9610600  48.5046110   6.8959490  17.7488480
  49.5876580   5.9744570  17.2294820  34.9766050  10.8096580  30.5483300
  35.0857170   9.8691320  30.4078690  34.3246610  11.0751330  29.8997030
  42.9678640   9.0812470  31.9481420  42.6475510   8.3621710  32.4927110
  42.2937000   9.7567540  32.0217480  41.0092810   9.9272920  16.8914570
  41.0002910  10.6602610  16.2759080  40.0891170   9.6804500  16.9841530
  36.6099450   5.1487810  17.6361330  36.0027400   5.8886710  17.6456630
  37.0848800   5.2387170  16.8099530  43.9952410   9.9901160  15.5539760
  44.0964390   9.7865150  14.6241740  43.0954150   9.7359440  15.7587540
  42.6370520  12.5087480  20.2487430  42.8912020  12.4708870  19.3266800
  41.6883000  12.3820810  20.2415680  48.6423100   3.4279360  21.8245940
  47.7013240   3.4429590  21.9993630  48.9567170   2.6415320  22.2706240
  38.6204740   5.1098960  15.3849900  39.3868010   4.9980320  15.9475330
  38.6979430   4.4136930  14.7326670  37.3151500   2.5424030  16.0682790
  37.3955090   1.5951540  16.1800190  38.2071250   2.8730910  16.1743450
  50.6448680  10.5988210  23.5000200  50.7696100  11.4219380  23.9724010
  51.5114240  10.3878940  23.1524350  38.1166210  12.6919420  23.1717330
  38.8528690  12.1434880  23.4425900  38.5007130  13.5575430  23.0323320
  35.0011690   8.7592990  19.0458840  34.0751470   9.0014130  19.0364250
  35.4668120   9.5867250  18.9243590  37.1224490  11.8765490  32.3602910
  37.9237220  12.1977540  32.7738310  36.6076310  11.5161070  33.0822820
  41.2268520  11.8649730  14.9942900  42.0197130  12.1538560  14.5424690
  40.7072870  11.4341900  14.3155380  45.9589120   7.9845360  32.3078320
  45.3527280   8.0076960  31.5674070  45.6543230   7.2528400  32.8445570
  47.3889490  11.7125650  30.9187730  48.3411240  11.6283670  30.8687970
  47.2417710  12.3767360  31.5921520  50.2798690  11.0919860  16.4179640
  49.9940200  10.6785000  15.6033820  50.0818240  12.0207570  16.2980160
  34.8422300   4.3638950  31.3038960  35.3461320   3.7846230  31.8755190
  34.1029720   4.6479180  31.8415330  41.7445920   7.0853140  14.8585250
  41.6396560   6.4705490  15.5846630  41.5770140   6.5619030  14.0748260
  41.8960240   5.7709940  30.8374480  41.1305910   6.3394940  30.7529150
  42.0776200   5.4786150  29.9442710  44.9848650   6.1473170  15.4627240
  44.4358750   6.5942470  16.1069980  45.6067910   5.6422420  15.9864910
  49.0383590   7.5015270  31.3949500  49.7793060   7.8391030  30.8916960
  48.2756270   7.6707330  30.8419270  36.8745380   2.5068540  32.1989030
  36.9150720   2.2082410  33.1074260  37.7290880   2.9076150  32.0396550
  40.6523770   5.1064090  17.3592540  41.0740190   4.9403960  18.2023930
  40.7774610   4.2964320  16.8647680  43.1651410   4.1301700  14.6069640
  43.6857070   3.4150720  14.2410790  43.8119810   4.7687570  14.9070150
  47.7129250   5.5530100  29.9304710  48.1270270   5.7075180  30.7795130
  46.7780250   5.6785320  30.0930490  48.1851420   2.8926260  31.9343860
  48.7672190   2.1378580  31.8464340  48.3613190   3.4233700  31.1575340
  42.4744480   5.5050580  27.9000640  42.8932590   6.3483310  27.7276880
  41.5553110   5.6422620  27.6707420  44.8108380   3.2366760  29.2838480
  44.9304590   2.6407900  30.0233320  45.6702380   3.2736450  28.8639780
  47.1496280   3.7903950  27.8600990  46.6231500   4.3146570  27.2566130
  47.4927620   4.4231340  28.4910720  40.3251900  11.8103590  29.0158370
  39.7872990  12.5349650  28.6967070  40.5785860  11.3333930  28.2255710
  43.1814110  13.0454800  29.2745020  43.1072810  13.9489940  29.5817390
  42.2792950  12.7266700  29.2467090  43.7299440  12.2113310  16.8971380
  44.6250230  12.5498280  16.9190140  43.7617070  11.4892720  16.2695660
  37.3695600   7.5840360  15.1258380  37.8070470   8.1270030  15.7815960
  37.8543330   6.7587310  15.1354720  34.5841400  10.3729390  22.5778640
  34.9144410   9.5050450  22.3457280  35.0132400  10.5787910  23.4083600
  39.1803320   8.7038400  20.2380610  38.8798860   8.5803370  21.1384520
  39.0740810   7.8446990  19.8296340  35.0731610  11.2399980  25.3160270
  34.6362600  11.4200780  26.1484420  35.6409290  11.9974600  25.1741990
  50.7093790  10.7416980  29.6037580  50.1095780  10.8009540  28.8601500
  50.8387690   9.8021960  29.7334430  51.9495240   8.4834800  14.9407290
  51.1188200   8.5511450  15.4114520  52.1267070   9.3738920  14.6374150
  51.4051700   5.2282280  17.4441490  52.1670610   5.7978930  17.5501180
  51.4206070   4.6609480  18.2149800  34.9056040   3.7520210  21.6749150
  34.2504880   3.4831850  21.0308850  35.7433990   3.6424690  21.2251130
  52.4111670   6.0832380  22.2883420  52.7820500   5.2999700  21.8819390
  53.0513600   6.7721480  22.1100720  49.3945430   7.4668960  27.7013740
  48.5805270   7.8966120  27.9639530  49.8019630   8.0787370  27.0882790
  51.4570870   5.5216650  14.6014010  51.7319710   6.4295530  14.4733230
  51.2681610   5.4579180  15.5376000  51.3536210   3.4585640  19.5943440
  50.9779810   2.6913570  19.1624730  50.6239330   3.8408340  20.0818370
  35.9431970   4.1372780  26.2152490  36.3105010   4.0500180  27.0948510
  35.3742790   3.3739330  26.1159350  50.7435830   2.6057160  29.2282960
  50.5121920   2.3769910  28.3280910  51.0040380   3.5256710  29.1827850
  50.8076890   1.7683000  26.4170230  49.8579600   1.7346540  26.5315220
  50.9889900   2.6783110  26.1820000  49.4521480  12.2187560  21.2282010
  50.0480550  11.8972130  20.5516430  49.7099630  11.7459380  22.0195280
  37.3584050   8.6505470  31.3772640  37.3153680   8.2798380  32.2587100
  37.4895060   9.5883040  31.5174460  41.0590080  10.2065060  26.9782360
  40.8181440  10.4739620  26.0912880  41.9992720  10.3770790  27.0333220
  52.3194240  12.2259440  27.7793000  51.8252520  12.6228310  27.0620130
  51.7107530  11.6008650  28.1730280  37.1972080  11.5967720  28.4970420
  36.6032400  11.4652420  29.2360460  37.1895920  10.7605860  28.0312520
  50.0033690  12.8682860  25.0579740  49.5436660  13.6198670  24.6837760
  49.3746150  12.1489330  24.9994540  36.8284310   8.9626100  27.4478460
  36.1018370   8.3431390  27.3804410  36.8893460   9.3566710  26.5776540
  40.4329410  11.1771100  24.2327870  40.9494430  10.5658460  23.7076130
  41.0826790  11.6799880  24.7238880  43.1724910  12.0679590  25.0596850
  43.4602720  11.8133890  24.1829860  43.6848130  11.5156950  25.6502420
  35.1114310  12.2800490  20.6575220  34.9436350  11.6471170  21.3557110
  34.2448820  12.4859890  20.3069410  36.7177010  10.9733720  18.1025360
  36.1924630  11.3541750  17.3987320  36.6421590  11.5984490  18.8235070
  43.2397270  12.9895690  32.4265050  44.1664580  12.7539960  32.4701010
  43.2247700  13.8167690  31.9451080  51.4742330  12.5321260  19.4239300
  51.6494520  11.8459000  18.7800220  50.7763900  13.0568310  19.0315970
  39.3169980  12.9216100  16.9774610  40.0488800  12.6375380  16.4298500
  39.5763650  12.6829380  17.8673990  38.4784770   9.0380830  16.9820940
  37.8493650   9.5065930  17.5306770  38.5932600   8.1930050  17.4167130
  49.8074830  12.2165550  32.2506090  50.6000150  11.7214780  32.0432050
  50.1007980  12.8955690  32.8581700  45.9334490   3.0886490   3.1322140
  45.8528540   2.1741100   2.8613850  45.5198910   3.5853560   2.4261850
  44.0652530   4.8665510   5.0131410  43.2894630   4.3865950   5.3029980
  44.7165460   4.1871160   4.8387570  38.0818360   5.1785320   5.8907170
  37.2503240   4.9234030   6.2903680  38.6899340   5.2496090   6.6265090
  48.0859960   9.2725700   3.7930540  47.6241490   8.5012940   4.1217710
  48.8985510   9.2991770   4.2982990  38.0619620   9.2125410   6.0865190
  38.3647660   8.3223150   5.9075410  38.8063210   9.7695630   5.8587440
  34.4543320   2.7392860   5.5589260  35.0259430   1.9715060   5.5592900
  34.4544860   3.0381620   4.6495870  44.3123270  11.5583710   3.4134530
  43.6934710  12.0141210   2.8428970  45.1675050  11.7135170   3.0124230
  43.5061520   7.5422700   5.0201570  43.4369800   6.6012640   4.8590700
  44.2681380   7.6324110   5.5924140  40.0418380   5.9698820   7.4850040
  39.7087760   6.5967740   8.1271110  40.2185060   6.4960700   6.7051710
  39.2537480   7.9379620   9.2999220  39.8711480   8.6130700   9.0183670
  38.3930600   8.3467600   9.2086720  50.1715070   9.4019030   7.2153860
  49.4878590  10.0718140   7.2070530  50.7109360   9.5999680   6.4498720
  47.7073810  11.2463160   5.9299040  47.7200970  10.8425450   5.0621300
  47.1549030  12.0210450   5.8260470  47.1059250   6.1493000   7.2581650
  47.5228040   5.9353110   6.4235110  47.8299070   6.4065790   7.8290270
  51.0521350   4.5480220   7.3497890  50.2239980   4.6173310   6.8748020
  51.6471830   5.1334530   6.8813720  40.1496150   4.1209440   3.1571430
  39.7453150   3.4086690   2.6617330  40.2359270   3.7762680   4.0459470
  40.6177850   7.8077000   5.3210640  40.3206140   7.2022470   4.6418420
  41.5677670   7.8454310   5.2100000  48.7063460  11.3808870   8.9833740
  48.2294020  12.1881060   8.7906350  48.0225250  10.7287200   9.1359950
  39.7096280   7.5458690  11.9718440  38.8124810   7.7698660  12.2191840
  39.7349150   7.6693630  11.0229840  38.5367500   4.4172010  10.5475810
  38.3975270   5.2894810  10.9163210  37.6548860   4.0744820  10.4023750
  44.8596880   9.3347880   1.8540940  45.2992790  10.0772210   1.4396330
  44.7983770   9.5774450   2.7779900  40.3347850  10.3593710  12.7560960
  40.3063280  10.7636660  11.8889390  40.1712820   9.4304070  12.5932560
  52.2862670  11.1420810  14.0525130  52.7622390  11.6203700  14.7314210
  52.9069830  11.0738300  13.3270630  34.4886150   6.1869560   6.4646720
  34.5666570   6.3218330   5.5202440  35.1027830   5.4785450   6.6574840
  35.7333780   7.8869750   2.8752900  35.3261860   8.0284340   2.0206500
  36.6246790   7.6029910   2.6724110  51.6895920   8.3333660  11.2125140
  51.8158980   8.0945540  10.2942320  51.7317300   7.5018200  11.6847220
  45.5512660  12.0361660   9.7819950  46.0657330  11.9469670  10.5842380
  44.7081740  12.3821360  10.0747860  46.7943120  11.4567270   1.8450440
  47.2500070  10.6756650   2.1589060  47.1335640  12.1674090   2.3891620
  34.5445670   7.2283730   9.0041180  34.7076710   6.7589090   8.1860550
  35.0098120   6.7207290   9.6690020  45.5296430   2.7155720   6.4927710
  44.7977550   3.2242530   6.8417810  45.1320770   1.8985700   6.1916490
  36.1184650   6.6035160  11.1636990  35.7339440   5.9628830  11.7619950
  36.4296840   7.3071280  11.7331720  42.2681790   3.4511700   6.6445610
  42.6351920   2.9770270   7.3906950  42.0786850   4.3253270   6.9853950
  40.0581160   2.4920340   8.9629820  39.7538230   3.3712320   9.1880180
  41.0127620   2.5520130   8.9987260  49.3450930   5.6946690   5.3523060
  50.0650050   6.1901980   4.9619170  49.1432750   5.0164580   4.7076930
  44.7269730   5.7655750  11.2392060  44.6607040   4.8451420  10.9849650
  44.0974870   5.8631190  11.9536700  38.6300350   6.3661710   3.1975480
  39.1479020   5.5629970   3.1432370  38.1784370   6.3040850   4.0392310
  36.1144890   3.3323080  10.1101180  35.7559830   3.9976930  10.6974520
  35.8199450   2.5006630  10.4813800  39.3158010   3.7907320  12.9940730
  39.0158150   3.9364500  12.0968550  40.0869250   3.2312610  12.9014120
  44.6586460   8.5876320  10.9895860  44.6731000   7.6557280  10.7714770
  43.9511560   8.6736080  11.6285630  50.8697670   5.2283660  10.3364440
  50.1445860   5.8212440  10.1393830  51.3973130   5.2207200   9.5377810
  46.3997260   6.9543830   3.8348290  46.7521080   6.3571960   3.1749660
  45.5159590   6.6288060   4.0056540  44.0920360  10.2293890   8.0836360
  44.7362580  10.4353270   8.7609780  44.4549800   9.4682290   7.6307210
  45.3652440   8.2326240   6.8013810  46.0074670   7.5319400   6.9145980
  45.8901790   9.0124680   6.6210700  47.1390060   9.0321140  10.0049870
  47.4746300   9.6187830  10.6827790  46.2190400   8.9013850  10.2347660
  34.9766050  10.8096580  11.7739810  35.0857170   9.8691320  11.6335200
  34.3246610  11.0751330  11.1253540  42.9678640   9.0812470  13.1737930
  42.6475510   8.3621710  13.7183620  42.2937000   9.7567540  13.2473990
  48.6423100   3.4279360   3.0502450  47.7013240   3.4429590   3.2250140
  48.9567170   2.6415320   3.4962750  50.6448680  10.5988210   4.7256710
  50.7696100  11.4219380   5.1980520  51.5114240  10.3878940   4.3780860
  38.1166210  12.6919420   4.3973840  38.8528690  12.1434880   4.6682410
  38.5007130  13.5575430   4.2579830  37.1224490  11.8765490  13.5859420
  37.9237220  12.1977540  13.9994820  36.6076310  11.5161070  14.3079330
  45.9589120   7.9845360  13.5334830  45.3527280   8.0076960  12.7930580
  45.6543230   7.2528400  14.0702080  47.3889490  11.7125650  12.1444240
  48.3411240  11.6283670  12.0944480  47.2417710  12.3767360  12.8178030
  34.8422300   4.3638950  12.5295470  35.3461320   3.7846230  13.1011700
  34.1029720   4.6479180  13.0671840  41.8960240   5.7709940  12.0630990
  41.1305910   6.3394940  11.9785660  42.0776200   5.4786150  11.1699220
  49.0383590   7.5015270  12.6206010  49.7793060   7.8391030  12.1173470
  48.2756270   7.6707330  12.0675780  36.8745380   2.5068540  13.4245540
  36.9150720   2.2082410  14.3330770  37.7290880   2.9076150  13.2653060
  47.7129250   5.5530100  11.1561220  48.1270270   5.7075180  12.0051640
  46.7780250   5.6785320  11.3187000  48.1851420   2.8926260  13.1600370
  48.7672190   2.1378580  13.0720850  48.3613190   3.4233700  12.3831850
  42.4744480   5.5050580   9.1257150  42.8932590   6.3483310   8.9533390
  41.5553110   5.6422620   8.8963930  44.8108380   3.2366760  10.5094990
  44.9304590   2.6407900  11.2489830  45.6702380   3.2736450  10.0896290
  47.1496280   3.7903950   9.0857500  46.6231500   4.3146570   8.4822640
  47.4927620   4.4231340   9.7167230  40.3251900  11.8103590  10.2414880
  39.7872990  12.5349650   9.9223580  40.5785860  11.3333930   9.4512220
  43.1814110  13.0454800  10.5001530  43.1072810  13.9489940  10.8073900
  42.2792950  12.7266700  10.4723600  34.5841400  10.3729390   3.8035150
  34.9144410   9.5050450   3.5713790  35.0132400  10.5787910   4.6340110
  35.0731610  11.2399980   6.5416780  34.6362600  11.4200780   7.3740930
  35.6409290  11.9974600   6.3998500  50.7093790  10.7416980  10.8294090
  50.1095780  10.8009540  10.0858010  50.8387690   9.8021960  10.9590940
  34.9056040   3.7520210   2.9005660  34.2504880   3.4831850   2.2565360
  35.7433990   3.6424690   2.4507640  52.4111670   6.0832380   3.5139930
  52.7820500   5.2999700   3.1075900  53.0513600   6.7721480   3.3357230
  49.3945430   7.4668960   8.9270250  48.5805270   7.8966120   9.1896040
  49.8019630   8.0787370   8.3139300  35.9431970   4.1372780   7.4409000
  36.3105010   4.0500180   8.3205020  35.3742790   3.3739330   7.3415860
  50.7435830   2.6057160  10.4539470  50.5121920   2.3769910   9.5537420
  51.0040380   3.5256710  10.4084360  50.8076890   1.7683000   7.6426740
  49.8579600   1.7346540   7.7571730  50.9889900   2.6783110   7.4076510
  49.4521480  12.2187560   2.4538520  50.0480550  11.8972130   1.7772940
  49.7099630  11.7459380   3.2451790  37.3584050   8.6505470  12.6029150
  37.3153680   8.2798380  13.4843610  37.4895060   9.5883040  12.7430970
  41.0590080  10.2065060   8.2038870  40.8181440  10.4739620   7.3169390
  41.9992720  10.3770790   8.2589730  52.3194240  12.2259440   9.0049510
  51.8252520  12.6228310   8.2876640  51.7107530  11.6008650   9.3986790
  37.1972080  11.5967720   9.7226930  36.6032400  11.4652420  10.4616970
  37.1895920  10.7605860   9.2569030  50.0033690  12.8682860   6.2836250
  49.5436660  13.6198670   5.9094270  49.3746150  12.1489330   6.2251050
  36.8284310   8.9626100   8.6734970  36.1018370   8.3431390   8.6060920
  36.8893460   9.3566710   7.8033050  40.4329410  11.1771100   5.4584380
  40.9494430  10.5658460   4.9332640  41.0826790  11.6799880   5.9495390
  43.1724910  12.0679590   6.2853360  43.4602720  11.8133890   5.4086370
  43.6848130  11.5156950   6.8758930  35.1114310  12.2800490   1.8831730
  34.9436350  11.6471170   2.5813620  34.2448820  12.4859890   1.5325920
  43.2397270  12.9895690  13.6521560  44.1664580  12.7539960  13.6957520
  43.2247700  13.8167690  13.1707590  49.8074830  12.2165550  13.4762600
  50.6000150  11.7214780  13.2688560  50.1007980  12.8955690  14.0838210
  27.1591000  78.1860450  78.2296100  27.0785050  77.2715060  77.9587810
  26.7455420  78.6827520  77.5235810  25.2909040  79.9639470  80.1105370
  24.5151140  79.4839910  80.4003940  25.9421970  79.2845120  79.9361530
  19.3074870  80.2759280  80.9881130  18.4759750  80.0207990  81.3877640
  19.9155850  80.3470050  81.7239050  17.7166820  75.2361170  74.7723520
  16.8283520  75.5777140  74.6703400  18.0008010  75.0361490  73.8804350
  15.6799830  77.8366820  80.6563220  16.2515940  77.0689020  80.6566860
  15.6801370  78.1355580  79.7469830  16.9224700  73.2451180  82.4432150
  16.7427540  72.3476930  82.7234910  16.5204780  73.7923050  83.1179100
  25.7623200  75.4467040  80.3444460  26.1388020  74.5738920  80.2318130
  25.6642710  75.7825740  79.4534900  19.8928210  73.8192670  75.8061900
  19.9994960  74.7196400  76.1130660  18.9820570  73.7710640  75.5156550
  29.5447320  72.9417480  77.2772800  30.3656940  72.4514050  77.3198280
  29.5781400  73.5315140  78.0304640  17.5411370  75.7411680  81.0514490
  18.2221480  76.0050050  81.6701890  17.2259420  74.9012550  81.3852500
  21.7335940  76.7879040  80.1387080  22.2414160  77.2860010  80.7792100
  22.2649180  76.0114240  79.9626440  29.7808800  74.8817860  80.0500340
  29.0764370  75.1702750  80.6303450  30.1420960  75.6917970  79.6899900
  19.6987370  73.1387560  82.4120950  20.0404180  73.9829610  82.1174820
  18.7603180  73.2871300  82.5286290  32.8495720  74.3272650  80.4409550
  31.9020630  74.3611630  80.5724980  33.1745710  75.1411600  80.8258910
  23.3815260  70.6269830  78.7365540  23.6890240  70.0716720  78.0201040
  22.4515960  70.7614290  78.5538530  25.7696020  78.6918660  75.4725660
  24.8425300  78.6256040  75.7014130  25.9220840  79.6298790  75.3580900
  25.7565100  74.9635660  72.4692820  24.8168770  75.1249620  72.5545280
  26.0748360  75.6821340  71.9228810  32.2777860  79.6454180  82.4471850
  31.4496490  79.7147270  81.9721980  32.8728340  80.2308490  81.9787680
  29.7993310  80.2538960  75.9760910  29.1805730  79.9158510  75.3287210
  29.7817760  79.6098720  76.6840100  21.3752660  79.2183400  78.2545390
  20.9709660  78.5060650  77.7591290  21.4615780  78.8736640  79.1433430
  20.0881280  75.9926610  82.0344430  20.6395870  76.1021950  81.2597680
  20.6024790  76.3664210  82.7499660  27.9758010  79.4925770  72.9833660
  28.4151290  78.6548200  72.8371480  28.6886430  80.1255170  73.0697800
  31.5575150  70.7468580  71.2974700  31.2447810  70.8395410  72.1973770
  32.3187620  71.3249610  71.2472130  18.0757290  78.1128380  75.7552040
  17.9554890  78.8390470  75.1433310  17.7658180  77.3431290  75.2779950
  20.5420950  71.4563450  79.1375710  20.0989100  72.2372990  78.8060230
  21.1005940  71.7793340  79.8446650  23.6579770  71.0774150  74.0181540
  23.0333950  71.0734020  74.7434850  23.5709890  70.2105110  73.6217510
  22.5796850  72.0010780  80.9965310  22.8769180  72.9073610  80.9157330
  23.1282410  71.5129560  80.3824880  20.3335170  76.5797020  76.8656960
  20.1076090  76.3634190  77.7703580  19.5527700  77.0125480  76.5202930
  27.5632930  76.5860390  75.4647610  26.9641820  77.3096190  75.2811230
  28.1112540  76.5237170  74.6824060  26.1697800  75.2223930  77.4950890
  26.5627370  75.5396130  76.6819580  26.5314650  74.3435810  77.6095410
  15.2061970  71.8124730  79.7181090  14.9175020  72.3827590  80.4306070
  15.9507730  71.3329180  80.0812320  15.3932200  75.7544850  70.9283810
  15.3106870  76.6975610  71.0698800  15.0415260  75.6119760  70.0496160
  26.7552940  77.8129680  81.5901670  26.0234060  78.3216490  81.9391770
  26.3577280  76.9959660  81.2890450  23.1930330  74.4883880  79.9954160
  23.1966390  74.0473830  79.1458700  24.0881450  74.8101210  80.1025980
  19.0432710  74.3710370  78.9548370  18.7032760  74.8485600  79.7115420
  18.2810030  73.9175490  78.5949470  23.2550480  75.4895960  72.9860920
  23.3763300  75.4482440  73.9346740  22.8698990  76.3520110  72.8307650
  27.2178850  73.2663360  81.0024610  27.2351590  73.7172010  81.8466460
  26.9694430  72.3669000  81.2158050  22.2671980  77.7997100  72.3844220
  21.6988880  77.3515350  71.7580130  22.9760980  78.1589880  71.8509370
  23.4938300  78.5485660  81.7419570  23.8608430  78.0744230  82.4880910
  23.3043360  79.4227230  82.0827910  16.3578790  73.2929350  77.8713040
  16.0725710  72.9285020  78.7091660  16.2957650  72.5609810  77.2576180
  30.5707440  80.7920650  80.4497020  31.2906560  81.2875940  80.0593130
  30.3689260  80.1138540  79.8050890  26.0317380  72.1858610  74.5926410
  25.2181990  71.6871780  74.5171720  25.8379330  73.0256860  74.1762760
  28.7465770  76.5578260  72.8888570  29.6345390  76.8695490  72.7139910
  28.7170860  75.6850510  72.4969150  31.0180040  77.8690100  72.3568430
  30.9343760  78.3004320  71.5064870  31.7374230  78.3288450  72.7895250
  15.8509450  78.4288300  71.8309740  16.7204300  78.7113100  72.1145660
  15.3599770  79.2424170  71.7158550  23.0144260  79.8161510  75.9518020
  23.4707040  80.6266760  76.1778210  22.6632470  79.4984650  76.7836510
  18.9156040  70.1599160  76.4240540  18.7870670  70.1517060  77.3725460
  18.0918060  70.4982250  76.0731550  17.8355960  80.2461770  73.9591800
  17.2283910  80.9860670  73.9687100  18.3105310  80.3361130  73.1330000
  30.7750780  73.3669530  74.4436250  30.1463940  73.4715200  73.7294480
  30.2802700  73.5866310  75.2330130  22.7434810  75.6455480  75.8594130
  22.0350960  76.1141820  76.3007740  23.0279290  74.9877490  76.4939320
  26.7750240  72.3706140  77.2989920  26.6518020  72.3892270  76.3499430
  27.7234800  72.4185080  77.4188320  20.9469830  73.9540560  73.2344840
  21.7960360  74.3910710  73.1685030  20.5801100  74.2660820  74.0616900
  29.8679610  78.5253320  78.1476410  28.9269750  78.5403550  78.3224100
  30.1823680  77.7389280  78.5936710  19.8461250  80.2072920  71.7080370
  20.6124520  80.0954280  72.2705800  19.9235940  79.5110890  71.0557140
  18.5408010  77.6397990  72.3913260  18.6211600  76.6925500  72.5030660
  19.4327760  77.9704870  72.4973920  21.8780280  80.2038050  73.6823010
  22.2996700  80.0377920  74.5254400  22.0031120  79.3938280  73.1878150
  24.3907920  79.2275660  70.9300110  24.9113580  78.5124680  70.5641260
  25.0376320  79.8661530  71.2300620  20.7739180  76.2771280  70.6281170
  20.5728240  75.4138640  70.9894510  20.6031230  76.1904640  69.6902770
  28.2527490  71.0879510  73.1568050  28.5329780  70.2447410  73.5127470
  27.4793220  71.3202620  73.6706800  19.5721980  73.3771900  70.6159050
  19.8747880  73.3839330  69.7078200  20.3116570  73.0269760  71.1126710
  22.7906910  72.3206520  71.6015250  22.4428910  71.6430510  71.0217700
  22.9919680  71.8596030  72.4158640  32.6308210  80.3256240  73.7671960
  33.3927120  80.8952890  73.8731650  32.6462580  79.7583440  74.5380270
  16.1312550  78.8494170  77.9979620  15.4761390  78.5805810  77.3539320
  16.9690500  78.7398650  77.5481600  29.0802990  73.6435460  72.2198110
  29.4987870  73.4566440  71.3794770  28.7739050  72.7914510  72.5301040
  32.5792720  78.5559600  75.9173910  32.2036320  77.7887530  75.4855200
  31.8495840  78.9382300  76.4048840  15.3450630  76.0593100  73.9404950
  14.4414710  76.3223300  73.7656610  15.8291250  76.3304270  73.1604910
  31.8543680  76.7817090  79.2181150  32.3781160  76.2879740  78.5871320
  32.4403100  76.9167450  79.9628720  32.0333400  76.8656960  82.7400700
  31.0836110  76.8320500  82.8545690  32.2146410  77.7757070  82.5050470
  17.8877840  75.1158640  71.8499330  18.5969540  74.6941860  71.3646610
  17.1717780  75.1833870  71.2182680  17.5352000  71.1697970  70.8901980
  18.2580130  71.7106910  71.2083200  17.8076520  70.8961390  70.0143520
  31.3443650  76.0390440  75.1573560  31.8402770  75.8061310  75.9422440
  31.1459720  75.2002280  74.7411200  17.2244190  70.4204160  80.7924600
  17.8720380  69.8701540  80.3519760  17.6446030  70.6747310  81.6140410
  32.7730810  74.6751390  77.6911240  32.6630090  74.5207430  78.6293510
  33.5338400  74.1472330  77.4486650  33.6621080  72.5059310  70.9317380
  34.5870390  72.3740490  70.7235670  33.6396870  72.5852130  71.8853830
  33.7359570  73.2769970  73.5574090  32.9411070  73.2115090  74.0867000
  33.9402850  74.2120610  73.5459440  25.6158430  70.9043750  81.9623830
  24.8330220  71.3789250  82.2420590  25.3221360  69.9998580  81.8537010
  30.1679500  71.6066850  80.0072920  30.6087590  71.5511950  79.1594520
  29.8987090  72.5224860  80.0783100  32.0318070  71.2382090  78.0181740
  31.9706470  70.2943310  77.8712760  32.8110100  71.3462180  78.5635200
  16.9598840  71.2091230  74.4837550  17.7178200  71.3220110  73.9101580
  16.4976010  72.0460430  74.4380980  23.5012650  73.3230500  77.4739860
  22.6887160  72.9487390  77.1335740  24.0054290  72.5675580  77.7761050
  28.0037630  69.9872950  78.7122930  28.6067000  70.5593160  79.1871450
  27.2630620  70.5512390  78.4896830  31.1472230  70.3894510  73.9863210
  31.3422860  71.2877960  74.2530640  30.3602100  70.1581590  74.4796160
  19.3323990  71.7355280  73.0239520  19.8616750  70.9485080  72.8947470
  19.9652310  72.4146470  73.2575050  21.5261830  71.4730420  76.0784910
  20.8964570  70.7717730  76.2455040  20.9866970  72.2334550  75.8618070
  27.1591000  78.1860450  59.4552610  27.0785050  77.2715060  59.1844320
  26.7455420  78.6827520  58.7492320  25.2909040  79.9639470  61.3361880
  24.5151140  79.4839910  61.6260450  25.9421970  79.2845120  61.1618040
  19.3074870  80.2759280  62.2137640  18.4759750  80.0207990  62.6134150
  19.9155850  80.3470050  62.9495560  17.7166820  75.2361170  55.9980030
  16.8283520  75.5777140  55.8959910  18.0008010  75.0361490  55.1060860
  15.6799830  77.8366820  61.8819730  16.2515940  77.0689020  61.8823370
  15.6801370  78.1355580  60.9726340  16.9224700  73.2451180  63.6688660
  16.7427540  72.3476930  63.9491420  16.5204780  73.7923050  64.3435610
  25.7623200  75.4467040  61.5700970  26.1388020  74.5738920  61.4574640
  25.6642710  75.7825740  60.6791410  19.8928210  73.8192670  57.0318410
  19.9994960  74.7196400  57.3387170  18.9820570  73.7710640  56.7413060
  29.5447320  72.9417480  58.5029310  30.3656940  72.4514050  58.5454790
  29.5781400  73.5315140  59.2561150  17.5411370  75.7411680  62.2771000
  18.2221480  76.0050050  62.8958400  17.2259420  74.9012550  62.6109010
  21.7335940  76.7879040  61.3643590  22.2414160  77.2860010  62.0048610
  22.2649180  76.0114240  61.1882950  33.8346870  74.9584230  65.0672940
  33.1299040  75.3465940  64.5488050  34.1004790  75.6534520  65.6693870
  20.0172040  71.4277600  65.6307010  20.0190480  71.9449990  64.8252910
  19.1876350  70.9507780  65.6076940  29.7808800  74.8817860  61.2756850
  29.0764370  75.1702750  61.8559960  30.1420960  75.6917970  60.9156410
  19.6987370  73.1387560  63.6377460  20.0404180  73.9829610  63.3431330
  18.7603180  73.2871300  63.7542800  32.8495720  74.3272650  61.6666060
  31.9020630  74.3611630  61.7981490  33.1745710  75.1411600  62.0515420
  23.3815260  70.6269830  59.9622050  23.6890240  70.0716720  59.2457550
  22.4515960  70.7614290  59.7795040  25.7696020  78.6918660  56.6982170
  24.8425300  78.6256040  56.9270640  25.9220840  79.6298790  56.5837410
  25.7565100  74.9635660  53.6949330  24.8168770  75.1249620  53.7801790
  26.0748360  75.6821340  53.1485320  32.2777860  79.6454180  63.6728360
  31.4496490  79.7147270  63.1978490  32.8728340  80.2308490  63.2044190
  29.7993310  80.2538960  57.2017420  29.1805730  79.9158510  56.5543720
  29.7817760  79.6098720  57.9096610  29.2419870  76.4323500  64.6183230
  28.8291050  77.2577210  64.8723220  28.5095820  75.8468540  64.4259590
  21.3752660  79.2183400  59.4801900  20.9709660  78.5060650  58.9847800
  21.4615780  78.8736640  60.3689940  20.0881280  75.9926610  63.2600940
  20.6395870  76.1021950  62.4854190  20.6024790  76.3664210  63.9756170
  27.9758010  79.4925770  54.2090170  28.4151290  78.6548200  54.0627990
  28.6886430  80.1255170  54.2954310  19.7624010  79.5145970  66.8706280
  19.6231780  80.3868770  67.2393680  18.8805370  79.1718780  66.7254220
  31.5575150  70.7468580  52.5231210  31.2447810  70.8395410  53.4230280
  32.3187620  71.3249610  52.4728640  18.0757290  78.1128380  56.9808550
  17.9554890  78.8390470  56.3689820  17.7658180  77.3431290  56.5036460
  32.7676440  75.4840080  68.5005350  32.1520710  75.9919750  67.9720810
  32.4472860  74.5838410  68.4431290  20.5420950  71.4563450  60.3632220
  20.0989100  72.2372990  60.0316740  21.1005940  71.7793340  61.0703160
  24.8290760  74.3231970  65.9667540  24.3670130  74.5314990  66.7787480
  24.4268870  73.5091320  65.6638210  29.8295270  75.5440920  67.0964200
  28.9788860  75.2446670  67.4173270  29.6697060  75.7882930  66.1848020
  26.9244980  77.0442670  69.1962990  27.2498390  76.2106420  68.8565220
  27.7125310  77.5671190  69.3441320  23.6579770  71.0774150  55.2438050
  23.0333950  71.0734020  55.9691360  23.5709890  70.2105110  54.8474020
  22.5796850  72.0010780  62.2221820  22.8769180  72.9073610  62.1413840
  23.1282410  71.5129560  61.6081390  20.3335170  76.5797020  58.0913470
  20.1076090  76.3634190  58.9960090  19.5527700  77.0125480  57.7459440
  27.5632930  76.5860390  56.6904120  26.9641820  77.3096190  56.5067740
  28.1112540  76.5237170  55.9080570  22.7734380  77.4782600  68.7573740
  22.6777980  76.5377330  68.6074140  23.6166360  77.6997670  68.3621810
  26.1697800  75.2223930  58.7207400  26.5627370  75.5396130  57.9076090
  26.5314650  74.3435810  58.8351920  17.9044920  73.8896270  66.9107520
  17.5108310  74.7371480  67.1180300  17.2163320  73.2522640  67.1016160
  24.4789970  73.9731240  69.9804260  23.7888290  73.7803440  70.6150350
  25.2222270  74.2565880  70.5128560  15.2061970  71.8124730  60.9437600
  14.9175020  72.3827590  61.6562580  15.9507730  71.3329180  61.3068830
  15.3932200  75.7544850  52.1540320  15.3106870  76.6975610  52.2955310
  15.0415260  75.6119760  51.2752670  26.7552940  77.8129680  62.8158180
  26.0234060  78.3216490  63.1648280  26.3577280  76.9959660  62.5146960
  23.1930330  74.4883880  61.2210670  23.1966390  74.0473830  60.3715210
  24.0881450  74.8101210  61.3282490  19.0432710  74.3710370  60.1804880
  18.7032760  74.8485600  60.9371930  18.2810030  73.9175490  59.8205980
  23.2550480  75.4895960  54.2117430  23.3763300  75.4482440  55.1603250
  22.8698990  76.3520110  54.0564160  27.2178850  73.2663360  62.2281120
  27.2351590  73.7172010  63.0722970  26.9694430  72.3669000  62.4414560
  22.2671980  77.7997100  53.6100730  21.6988880  77.3515350  52.9836640
  22.9760980  78.1589880  53.0765880  30.6449600  70.6795540  68.0667500
  30.9695370  69.9485200  68.5925480  30.6806110  70.3609180  67.1648490
  23.4938300  78.5485660  62.9676080  23.8608430  78.0744230  63.7137420
  23.3043360  79.4227230  63.3084420  16.3578790  73.2929350  59.0969550
  16.0725710  72.9285020  59.9348170  16.2957650  72.5609810  58.4832690
  21.2837670  77.5894300  65.2860290  20.9794740  78.4686280  65.5110650
  22.2384130  77.6494090  65.3217730  30.5707440  80.7920650  61.6753530
  31.2906560  81.2875940  61.2849640  30.3689260  80.1138540  61.0307400
  26.0317380  72.1858610  55.8182920  25.2181990  71.6871780  55.7428230
  25.8379330  73.0256860  55.4019270  25.9526240  80.8629710  67.5622530
  25.8863550  79.9425380  67.3080120  25.3231380  80.9605150  68.2767170
  28.7465770  76.5578260  54.1145080  29.6345390  76.8695490  53.9396420
  28.7170860  75.6850510  53.7225660  17.3401400  78.4297040  66.4331650
  16.9816340  79.0950890  67.0204990  17.0455960  77.5980590  66.8044270
  20.5414520  78.8881280  69.3171200  20.2414660  79.0338460  68.4199020
  21.3125760  78.3286570  69.2244590  31.0180040  77.8690100  53.5824940
  30.9343760  78.3004320  52.7321380  31.7374230  78.3288450  54.0151760
  32.0954180  80.3257620  66.6594910  31.3702370  80.9186400  66.4624300
  32.6229640  80.3181160  65.8608280  15.8509450  78.4288300  53.0566250
  16.7204300  78.7113100  53.3402170  15.3599770  79.2424170  52.9415060
  23.0144260  79.8161510  57.1774530  23.4707040  80.6266760  57.4034720
  22.6632470  79.4984650  58.0093020  18.9156040  70.1599160  57.6497050
  18.7870670  70.1517060  58.5981970  18.0918060  70.4982250  57.2988060
  15.9149970  71.9190280  67.1103750  15.2008490  72.1187200  67.7156360
  16.3345010  71.1429850  67.4818550  17.8355960  80.2461770  55.1848310
  17.2283910  80.9860670  55.1943610  18.3105310  80.3361130  54.3586510
  27.4088750  74.4112590  64.8605200  27.7769570  73.5907800  65.1884770
  26.5486950  74.4714480  65.2760850  30.7750780  73.3669530  55.6692760
  30.1463940  73.4715200  54.9550990  30.2802700  73.5866310  56.4586640
  22.7434810  75.6455480  57.0850640  22.0350960  76.1141820  57.5264250
  23.0279290  74.9877490  57.7195830  24.3690740  77.0652180  65.0843170
  24.8675990  77.5398000  65.7495020  24.5113690  76.1415700  65.2913200
  26.7750240  72.3706140  58.5246430  26.6518020  72.3892270  57.5755940
  27.7234800  72.4185080  58.6444830  20.9469830  73.9540560  54.4601350
  21.7960360  74.3910710  54.3941540  20.5801100  74.2660820  55.2873410
  31.5757600  73.2820140  65.9271560  31.0731200  74.0225540  66.2665370
  32.3914260  73.6704140  65.6108350  29.8679610  78.5253320  59.3732920
  28.9269750  78.5403550  59.5480610  30.1823680  77.7389280  59.8193220
  19.8461250  80.2072920  52.9336880  20.6124520  80.0954280  53.4962310
  19.9235940  79.5110890  52.2813650  18.5408010  77.6397990  53.6169770
  18.6211600  76.6925500  53.7287170  19.4327760  77.9704870  53.7230430
  16.0678810  79.4612910  68.8525940  16.5717830  78.8820190  69.4242170
  15.3286230  79.7453140  69.3902310  18.1001890  77.6042500  69.7476010
  18.1407230  77.3056370  70.6561240  18.9547390  78.0050110  69.5883530
  21.8780280  80.2038050  54.9079520  22.2996700  80.0377920  55.7510910
  22.0031120  79.3938280  54.4134660  20.0407700  76.1834600  67.7150500
  19.5104160  75.6925550  67.0873840  20.7095770  76.6118800  67.1808430
  24.3907920  79.2275660  52.1556620  24.9113580  78.5124680  51.7897770
  25.0376320  79.8661530  52.4557130  28.9385760  80.6504060  67.4791690
  29.3526780  80.8049140  68.3282110  28.0036760  80.7759280  67.6417470
  29.4107930  77.9900220  69.4830840  29.9928700  77.2352540  69.3951320
  29.5869700  78.5207660  68.7062320  20.5280000  73.1496970  67.7947790
  20.4336870  72.5317720  67.0698660  19.9477390  73.8763260  67.5677700
  23.2941440  71.7070210  64.8275180  22.8458740  71.7294470  63.9820730
  22.6606640  71.3089230  65.4245480  26.0364890  78.3340720  66.8325460
  26.1561100  77.7381860  67.5720300  26.8958890  78.3710410  66.4126760
  28.3752790  78.8877910  65.4087970  27.8488010  79.4120530  64.8053110
  28.7184130  79.5205300  66.0397700  20.7739180  76.2771280  51.8537680
  20.5728240  75.4138640  52.2151020  20.6031230  76.1904640  50.9159280
  22.8033660  74.8762070  68.0901280  23.3933350  74.5677920  68.7779100
  21.9853900  74.4041820  68.2461180  27.6227090  74.4927880  68.3234300
  26.9342610  73.8309420  68.2584290  28.3433110  74.0466150  68.7682760
  28.2527490  71.0879510  54.3824560  28.5329780  70.2447410  54.7383980
  27.4793220  71.3202620  54.8963310  19.5721980  73.3771900  51.8415560
  19.8747880  73.3839330  50.9334710  20.3116570  73.0269760  52.3383220
  22.7906910  72.3206520  52.8271760  22.4428910  71.6430510  52.2474210
  22.9919680  71.8596030  53.6415150  32.6308210  80.3256240  54.9928470
  33.3927120  80.8952890  55.0988160  32.6462580  79.7583440  55.7636780
  16.1312550  78.8494170  59.2236130  15.4761390  78.5805810  58.5795830
  16.9690500  78.7398650  58.7738110  29.0802990  73.6435460  53.4454620
  29.4987870  73.4566440  52.6051280  28.7739050  72.7914510  53.7557550
  32.5792720  78.5559600  57.1430420  32.2036320  77.7887530  56.7111710
  31.8495840  78.9382300  57.6305350  17.1688480  79.2346740  63.7639470
  17.5361520  79.1474140  64.6435490  16.5999300  78.4713290  63.6646330
  31.9692340  77.7031120  66.7769940  31.7378430  77.4743870  65.8767890
  32.2296890  78.6230670  66.7314830  16.7204480  76.1455830  67.6697890
  15.8260530  76.1122590  68.0091600  17.2602030  76.3442620  68.4349140
  30.4080410  72.9287550  69.5549640  31.2850590  72.9370950  69.9383640
  30.4201250  72.1918390  68.9441990  15.3450630  76.0593100  55.1661460
  14.4414710  76.3223300  54.9913120  15.8291250  76.3304270  54.3861420
  31.8543680  76.7817090  60.4437660  32.3781160  76.2879740  59.8127830
  32.4403100  76.9167450  61.1885230  32.0333400  76.8656960  63.9657210
  31.0836110  76.8320500  64.0802200  32.2146410  77.7757070  63.7306980
  17.8877840  75.1158640  53.0755840  18.5969540  74.6941860  52.5903120
  17.1717780  75.1833870  52.4439190  17.5352000  71.1697970  52.1158490
  18.2580130  71.7106910  52.4339710  17.8076520  70.8961390  51.2400030
  31.3443650  76.0390440  56.3830070  31.8402770  75.8061310  57.1678950
  31.1459720  75.2002280  55.9667710  17.2244190  70.4204160  62.0181110
  17.8720380  69.8701540  61.5776270  17.6446030  70.6747310  62.8396920
  32.7730810  74.6751390  58.9167750  32.6630090  74.5207430  59.8550020
  33.5338400  74.1472330  58.6743160  31.1196530  70.6145520  65.3750750
  31.7568750  71.2279660  65.7409940  31.2671420  70.6506180  64.4299980
  33.6621080  72.5059310  52.1573890  34.5870390  72.3740490  51.9492180
  33.6396870  72.5852130  53.1110340  33.7359570  73.2769970  54.7830600
  32.9411070  73.2115090  55.3123510  33.9402850  74.2120610  54.7715950
  16.9776190  70.5759830  64.7606430  16.6291010  71.0323650  65.5264610
  16.6463890  69.6816960  64.8428860  24.4901010  71.7671710  68.2825850
  24.4289900  72.3593540  69.0321260  25.4301390  71.6597670  68.1376110
  27.1275570  71.4241770  67.9218140  27.7415980  71.7421060  67.2599220
  27.6725130  70.9390360  68.5414000  17.6496830  70.1036030  68.0357200
  18.1979820  69.9224080  67.2723310  17.7152140  69.3130140  68.5713510
  27.8683610  69.9873910  64.2487430  26.9943450  70.3209020  64.0460360
  27.7594360  69.5147090  65.0739300  28.7755590  72.1944780  65.6329150
  28.4468950  71.3796540  65.2530880  29.7237890  72.1514590  65.5094840
  25.6158430  70.9043750  63.1880340  24.8330220  71.3789250  63.4677100
  25.3221360  69.9998580  63.0793520  30.1679500  71.6066850  61.2329430
  30.6087590  71.5511950  60.3851030  29.8987090  72.5224860  61.3039610
  32.0318070  71.2382090  59.2438250  31.9706470  70.2943310  59.0969270
  32.8110100  71.3462180  59.7891710  16.9598840  71.2091230  55.7094060
  17.7178200  71.3220110  55.1358090  16.4976010  72.0460430  55.6637490
  23.5012650  73.3230500  58.6996370  22.6887160  72.9487390  58.3592250
  24.0054290  72.5675580  59.0017560  28.0037630  69.9872950  59.9379440
  28.6067000  70.5593160  60.4127960  27.2630620  70.5512390  59.7153340
  31.1472230  70.3894510  55.2119720  31.3422860  71.2877960  55.4787150
  30.3602100  70.1581590  55.7052670  19.3323990  71.7355280  54.2496030
  19.8616750  70.9485080  54.1203980  19.9652310  72.4146470  54.4831560
  21.5261830  71.4730420  57.3041420  20.8964570  70.7717730  57.4711550
  20.9866970  72.2334550  57.0874580  21.6517390  70.7514400  69.7393910
  21.3701660  71.2548000  68.9754730  22.0337090  69.9536150  69.3736040
  28.2532850  70.1667980  70.3174380  28.1398300  70.4862590  71.2125900
  29.0702590  70.5680490  70.0211660  27.1591000  78.1860450  40.6809120
  27.0785050  77.2715060  40.4100830  26.7455420  78.6827520  39.9748830
  25.2909040  79.9639470  42.5618390  24.5151140  79.4839910  42.8516960
  25.9421970  79.2845120  42.3874550  19.3074870  80.2759280  43.4394150
  18.4759750  80.0207990  43.8390660  19.9155850  80.3470050  44.1752070
  17.7166820  75.2361170  37.2236540  16.8283520  75.5777140  37.1216420
  18.0008010  75.0361490  36.3317370  15.6799830  77.8366820  43.1076240
  16.2515940  77.0689020  43.1079880  15.6801370  78.1355580  42.1982850
  16.9224700  73.2451180  44.8945170  16.7427540  72.3476930  45.1747930
  16.5204780  73.7923050  45.5692120  25.7623200  75.4467040  42.7957480
  26.1388020  74.5738920  42.6831150  25.6642710  75.7825740  41.9047920
  19.8928210  73.8192670  38.2574920  19.9994960  74.7196400  38.5643680
  18.9820570  73.7710640  37.9669570  29.5447320  72.9417480  39.7285820
  30.3656940  72.4514050  39.7711300  29.5781400  73.5315140  40.4817660
  17.5411370  75.7411680  43.5027510  18.2221480  76.0050050  44.1214910
  17.2259420  74.9012550  43.8365520  21.7335940  76.7879040  42.5900100
  22.2414160  77.2860010  43.2305120  22.2649180  76.0114240  42.4139460
  33.8346870  74.9584230  46.2929450  33.1299040  75.3465940  45.7744560
  34.1004790  75.6534520  46.8950380  20.0172040  71.4277600  46.8563520
  20.0190480  71.9449990  46.0509420  19.1876350  70.9507780  46.8333450
  29.7808800  74.8817860  42.5013360  29.0764370  75.1702750  43.0816470
  30.1420960  75.6917970  42.1412920  19.6987370  73.1387560  44.8633970
  20.0404180  73.9829610  44.5687840  18.7603180  73.2871300  44.9799310
  32.8495720  74.3272650  42.8922570  31.9020630  74.3611630  43.0238000
  33.1745710  75.1411600  43.2771930  23.3815260  70.6269830  41.1878560
  23.6890240  70.0716720  40.4714060  22.4515960  70.7614290  41.0051550
  25.7696020  78.6918660  37.9238680  24.8425300  78.6256040  38.1527150
  25.9220840  79.6298790  37.8093920  25.7565100  74.9635660  34.9205840
  24.8168770  75.1249620  35.0058300  26.0748360  75.6821340  34.3741830
  32.2777860  79.6454180  44.8984870  31.4496490  79.7147270  44.4235000
  32.8728340  80.2308490  44.4300700  29.7993310  80.2538960  38.4273930
  29.1805730  79.9158510  37.7800230  29.7817760  79.6098720  39.1353120
  29.2419870  76.4323500  45.8439740  28.8291050  77.2577210  46.0979730
  28.5095820  75.8468540  45.6516100  21.3752660  79.2183400  40.7058410
  20.9709660  78.5060650  40.2104310  21.4615780  78.8736640  41.5946450
  20.0881280  75.9926610  44.4857450  20.6395870  76.1021950  43.7110700
  20.6024790  76.3664210  45.2012680  27.9758010  79.4925770  35.4346680
  28.4151290  78.6548200  35.2884500  28.6886430  80.1255170  35.5210820
  19.7624010  79.5145970  48.0962790  19.6231780  80.3868770  48.4650190
  18.8805370  79.1718780  47.9510730  31.5575150  70.7468580  33.7487720
  31.2447810  70.8395410  34.6486790  32.3187620  71.3249610  33.6985150
  18.0757290  78.1128380  38.2065060  17.9554890  78.8390470  37.5946330
  17.7658180  77.3431290  37.7292970  32.7676440  75.4840080  49.7261860
  32.1520710  75.9919750  49.1977320  32.4472860  74.5838410  49.6687800
  20.5420950  71.4563450  41.5888730  20.0989100  72.2372990  41.2573250
  21.1005940  71.7793340  42.2959670  24.8290760  74.3231970  47.1924050
  24.3670130  74.5314990  48.0043990  24.4268870  73.5091320  46.8894720
  29.8295270  75.5440920  48.3220710  28.9788860  75.2446670  48.6429780
  29.6697060  75.7882930  47.4104530  26.9244980  77.0442670  50.4219500
  27.2498390  76.2106420  50.0821730  27.7125310  77.5671190  50.5697830
  23.6579770  71.0774150  36.4694560  23.0333950  71.0734020  37.1947870
  23.5709890  70.2105110  36.0730530  22.5796850  72.0010780  43.4478330
  22.8769180  72.9073610  43.3670350  23.1282410  71.5129560  42.8337900
  20.3335170  76.5797020  39.3169980  20.1076090  76.3634190  40.2216600
  19.5527700  77.0125480  38.9715950  27.5632930  76.5860390  37.9160630
  26.9641820  77.3096190  37.7324250  28.1112540  76.5237170  37.1337080
  22.7734380  77.4782600  49.9830250  22.6777980  76.5377330  49.8330650
  23.6166360  77.6997670  49.5878320  26.1697800  75.2223930  39.9463910
  26.5627370  75.5396130  39.1332600  26.5314650  74.3435810  40.0608430
  17.9044920  73.8896270  48.1364030  17.5108310  74.7371480  48.3436810
  17.2163320  73.2522640  48.3272670  24.4789970  73.9731240  51.2060770
  23.7888290  73.7803440  51.8406860  25.2222270  74.2565880  51.7385070
  15.2061970  71.8124730  42.1694110  14.9175020  72.3827590  42.8819090
  15.9507730  71.3329180  42.5325340  15.3932200  75.7544850  33.3796830
  15.3106870  76.6975610  33.5211820  15.0415260  75.6119760  32.5009180
  26.7552940  77.8129680  44.0414690  26.0234060  78.3216490  44.3904790
  26.3577280  76.9959660  43.7403470  23.1930330  74.4883880  42.4467180
  23.1966390  74.0473830  41.5971720  24.0881450  74.8101210  42.5539000
  19.0432710  74.3710370  41.4061390  18.7032760  74.8485600  42.1628440
  18.2810030  73.9175490  41.0462490  23.2550480  75.4895960  35.4373940
  23.3763300  75.4482440  36.3859760  22.8698990  76.3520110  35.2820670
  27.2178850  73.2663360  43.4537630  27.2351590  73.7172010  44.2979480
  26.9694430  72.3669000  43.6671070  22.2671980  77.7997100  34.8357240
  21.6988880  77.3515350  34.2093150  22.9760980  78.1589880  34.3022390
  30.6449600  70.6795540  49.2924010  30.9695370  69.9485200  49.8181990
  30.6806110  70.3609180  48.3905000  23.4938300  78.5485660  44.1932590
  23.8608430  78.0744230  44.9393930  23.3043360  79.4227230  44.5340930
  16.3578790  73.2929350  40.3226060  16.0725710  72.9285020  41.1604680
  16.2957650  72.5609810  39.7089200  21.2837670  77.5894300  46.5116800
  20.9794740  78.4686280  46.7367160  22.2384130  77.6494090  46.5474240
  30.5707440  80.7920650  42.9010040  31.2906560  81.2875940  42.5106150
  30.3689260  80.1138540  42.2563910  26.0317380  72.1858610  37.0439430
  25.2181990  71.6871780  36.9684740  25.8379330  73.0256860  36.6275780
  25.9526240  80.8629710  48.7879040  25.8863550  79.9425380  48.5336630
  25.3231380  80.9605150  49.5023680  28.7465770  76.5578260  35.3401590
  29.6345390  76.8695490  35.1652930  28.7170860  75.6850510  34.9482170
  17.3401400  78.4297040  47.6588160  16.9816340  79.0950890  48.2461500
  17.0455960  77.5980590  48.0300780  20.5414520  78.8881280  50.5427710
  20.2414660  79.0338460  49.6455530  21.3125760  78.3286570  50.4501100
  31.0180040  77.8690100  34.8081450  30.9343760  78.3004320  33.9577890
  31.7374230  78.3288450  35.2408270  32.0954180  80.3257620  47.8851420
  31.3702370  80.9186400  47.6880810  32.6229640  80.3181160  47.0864790
  15.8509450  78.4288300  34.2822760  16.7204300  78.7113100  34.5658680
  15.3599770  79.2424170  34.1671570  23.0144260  79.8161510  38.4031040
  23.4707040  80.6266760  38.6291230  22.6632470  79.4984650  39.2349530
  18.9156040  70.1599160  38.8753560  18.7870670  70.1517060  39.8238480
  18.0918060  70.4982250  38.5244570  15.9149970  71.9190280  48.3360260
  15.2008490  72.1187200  48.9412870  16.3345010  71.1429850  48.7075060
  17.8355960  80.2461770  36.4104820  17.2283910  80.9860670  36.4200120
  18.3105310  80.3361130  35.5843020  27.4088750  74.4112590  46.0861710
  27.7769570  73.5907800  46.4141280  26.5486950  74.4714480  46.5017360
  30.7750780  73.3669530  36.8949270  30.1463940  73.4715200  36.1807500
  30.2802700  73.5866310  37.6843150  22.7434810  75.6455480  38.3107150
  22.0350960  76.1141820  38.7520760  23.0279290  74.9877490  38.9452340
  24.3690740  77.0652180  46.3099680  24.8675990  77.5398000  46.9751530
  24.5113690  76.1415700  46.5169710  26.7750240  72.3706140  39.7502940
  26.6518020  72.3892270  38.8012450  27.7234800  72.4185080  39.8701340
  20.9469830  73.9540560  35.6857860  21.7960360  74.3910710  35.6198050
  20.5801100  74.2660820  36.5129920  31.5757600  73.2820140  47.1528070
  31.0731200  74.0225540  47.4921880  32.3914260  73.6704140  46.8364860
  29.8679610  78.5253320  40.5989430  28.9269750  78.5403550  40.7737120
  30.1823680  77.7389280  41.0449730  19.8461250  80.2072920  34.1593390
  20.6124520  80.0954280  34.7218820  19.9235940  79.5110890  33.5070160
  18.5408010  77.6397990  34.8426280  18.6211600  76.6925500  34.9543680
  19.4327760  77.9704870  34.9486940  16.0678810  79.4612910  50.0782450
  16.5717830  78.8820190  50.6498680  15.3286230  79.7453140  50.6158820
  18.1001890  77.6042500  50.9732520  18.1407230  77.3056370  51.8817750
  18.9547390  78.0050110  50.8140040  21.8780280  80.2038050  36.1336030
  22.2996700  80.0377920  36.9767420  22.0031120  79.3938280  35.6391170
  20.0407700  76.1834600  48.9407010  19.5104160  75.6925550  48.3130350
  20.7095770  76.6118800  48.4064940  24.3907920  79.2275660  33.3813130
  24.9113580  78.5124680  33.0154280  25.0376320  79.8661530  33.6813640
  28.9385760  80.6504060  48.7048200  29.3526780  80.8049140  49.5538620
  28.0036760  80.7759280  48.8673980  29.4107930  77.9900220  50.7087350
  29.9928700  77.2352540  50.6207830  29.5869700  78.5207660  49.9318830
  20.5280000  73.1496970  49.0204300  20.4336870  72.5317720  48.2955170
  19.9477390  73.8763260  48.7934210  23.2941440  71.7070210  46.0531690
  22.8458740  71.7294470  45.2077240  22.6606640  71.3089230  46.6501990
  26.0364890  78.3340720  48.0581970  26.1561100  77.7381860  48.7976810
  26.8958890  78.3710410  47.6383270  28.3752790  78.8877910  46.6344480
  27.8488010  79.4120530  46.0309620  28.7184130  79.5205300  47.2654210
  20.7739180  76.2771280  33.0794190  20.5728240  75.4138640  33.4407530
  20.6031230  76.1904640  32.1415790  22.8033660  74.8762070  49.3157790
  23.3933350  74.5677920  50.0035610  21.9853900  74.4041820  49.4717690
  27.6227090  74.4927880  49.5490810  26.9342610  73.8309420  49.4840800
  28.3433110  74.0466150  49.9939270  28.2527490  71.0879510  35.6081070
  28.5329780  70.2447410  35.9640490  27.4793220  71.3202620  36.1219820
  19.5721980  73.3771900  33.0672070  19.8747880  73.3839330  32.1591220
  20.3116570  73.0269760  33.5639730  22.7906910  72.3206520  34.0528270
  22.4428910  71.6430510  33.4730720  22.9919680  71.8596030  34.8671660
  32.6308210  80.3256240  36.2184980  33.3927120  80.8952890  36.3244670
  32.6462580  79.7583440  36.9893290  16.1312550  78.8494170  40.4492640
  15.4761390  78.5805810  39.8052340  16.9690500  78.7398650  39.9994620
  29.0802990  73.6435460  34.6711130  29.4987870  73.4566440  33.8307790
  28.7739050  72.7914510  34.9814060  32.5792720  78.5559600  38.3686930
  32.2036320  77.7887530  37.9368220  31.8495840  78.9382300  38.8561860
  17.1688480  79.2346740  44.9895980  17.5361520  79.1474140  45.8692000
  16.5999300  78.4713290  44.8902840  31.9692340  77.7031120  48.0026450
  31.7378430  77.4743870  47.1024400  32.2296890  78.6230670  47.9571340
  16.7204480  76.1455830  48.8954400  15.8260530  76.1122590  49.2348110
  17.2602030  76.3442620  49.6605650  30.4080410  72.9287550  50.7806150
  31.2850590  72.9370950  51.1640150  30.4201250  72.1918390  50.1698500
  15.3450630  76.0593100  36.3917970  14.4414710  76.3223300  36.2169630
  15.8291250  76.3304270  35.6117930  31.8543680  76.7817090  41.6694170
  32.3781160  76.2879740  41.0384340  32.4403100  76.9167450  42.4141740
  32.0333400  76.8656960  45.1913720  31.0836110  76.8320500  45.3058710
  32.2146410  77.7757070  44.9563490  17.8877840  75.1158640  34.3012350
  18.5969540  74.6941860  33.8159630  17.1717780  75.1833870  33.6695700
  17.5352000  71.1697970  33.3415000  18.2580130  71.7106910  33.6596220
  17.8076520  70.8961390  32.4656540  31.3443650  76.0390440  37.6086580
  31.8402770  75.8061310  38.3935460  31.1459720  75.2002280  37.1924220
  17.2244190  70.4204160  43.2437620  17.8720380  69.8701540  42.8032780
  17.6446030  70.6747310  44.0653430  32.7730810  74.6751390  40.1424260
  32.6630090  74.5207430  41.0806530  33.5338400  74.1472330  39.8999670
  31.1196530  70.6145520  46.6007260  31.7568750  71.2279660  46.9666450
  31.2671420  70.6506180  45.6556490  33.6621080  72.5059310  33.3830400
  34.5870390  72.3740490  33.1748690  33.6396870  72.5852130  34.3366850
  33.7359570  73.2769970  36.0087110  32.9411070  73.2115090  36.5380020
  33.9402850  74.2120610  35.9972460  16.9776190  70.5759830  45.9862940
  16.6291010  71.0323650  46.7521120  16.6463890  69.6816960  46.0685370
  24.4901010  71.7671710  49.5082360  24.4289900  72.3593540  50.2577770
  25.4301390  71.6597670  49.3632620  27.1275570  71.4241770  49.1474650
  27.7415980  71.7421060  48.4855730  27.6725130  70.9390360  49.7670510
  17.6496830  70.1036030  49.2613710  18.1979820  69.9224080  48.4979820
  17.7152140  69.3130140  49.7970020  27.8683610  69.9873910  45.4743940
  26.9943450  70.3209020  45.2716870  27.7594360  69.5147090  46.2995810
  28.7755590  72.1944780  46.8585660  28.4468950  71.3796540  46.4787390
  29.7237890  72.1514590  46.7351350  25.6158430  70.9043750  44.4136850
  24.8330220  71.3789250  44.6933610  25.3221360  69.9998580  44.3050030
  30.1679500  71.6066850  42.4585940  30.6087590  71.5511950  41.6107540
  29.8987090  72.5224860  42.5296120  32.0318070  71.2382090  40.4694760
  31.9706470  70.2943310  40.3225780  32.8110100  71.3462180  41.0148220
  16.9598840  71.2091230  36.9350570  17.7178200  71.3220110  36.3614600
  16.4976010  72.0460430  36.8894000  23.5012650  73.3230500  39.9252880
  22.6887160  72.9487390  39.5848760  24.0054290  72.5675580  40.2274070
  31.1472230  70.3894510  36.4376230  31.3422860  71.2877960  36.7043660
  30.3602100  70.1581590  36.9309180  19.3323990  71.7355280  35.4752540
  19.8616750  70.9485080  35.3460490  19.9652310  72.4146470  35.7088070
  21.5261830  71.4730420  38.5297930  20.8964570  70.7717730  38.6968060
  20.9866970  72.2334550  38.3131090  21.6517390  70.7514400  50.9650420
  21.3701660  71.2548000  50.2011240  22.0337090  69.9536150  50.5992550
  28.2532850  70.1667980  51.5430890  28.1398300  70.4862590  52.4382410
  29.0702590  70.5680490  51.2468170  27.1591000  78.1860450  21.9065630
  27.0785050  77.2715060  21.6357340  26.7455420  78.6827520  21.2005340
  25.2909040  79.9639470  23.7874900  24.5151140  79.4839910  24.0773470
  25.9421970  79.2845120  23.6131060  19.3074870  80.2759280  24.6650660
  18.4759750  80.0207990  25.0647170  19.9155850  80.3470050  25.4008580
  17.7166820  75.2361170  18.4493050  16.8283520  75.5777140  18.3472930
  18.0008010  75.0361490  17.5573880  15.6799830  77.8366820  24.3332750
  16.2515940  77.0689020  24.3336390  15.6801370  78.1355580  23.4239360
  16.9224700  73.2451180  26.1201680  16.7427540  72.3476930  26.4004440
  16.5204780  73.7923050  26.7948630  25.7623200  75.4467040  24.0213990
  26.1388020  74.5738920  23.9087660  25.6642710  75.7825740  23.1304430
  19.8928210  73.8192670  19.4831430  19.9994960  74.7196400  19.7900190
  18.9820570  73.7710640  19.1926080  29.5447320  72.9417480  20.9542330
  30.3656940  72.4514050  20.9967810  29.5781400  73.5315140  21.7074170
  17.5411370  75.7411680  24.7284020  18.2221480  76.0050050  25.3471420
  17.2259420  74.9012550  25.0622030  21.7335940  76.7879040  23.8156610
  22.2414160  77.2860010  24.4561630  22.2649180  76.0114240  23.6395970
  33.8346870  74.9584230  27.5185960  33.1299040  75.3465940  27.0001070
  34.1004790  75.6534520  28.1206890  20.0172040  71.4277600  28.0820030
  20.0190480  71.9449990  27.2765930  19.1876350  70.9507780  28.0589960
  29.7808800  74.8817860  23.7269870  29.0764370  75.1702750  24.3072980
  30.1420960  75.6917970  23.3669430  19.6987370  73.1387560  26.0890480
  20.0404180  73.9829610  25.7944350  18.7603180  73.2871300  26.2055820
  32.8495720  74.3272650  24.1179080  31.9020630  74.3611630  24.2494510
  33.1745710  75.1411600  24.5028440  23.3815260  70.6269830  22.4135070
  23.6890240  70.0716720  21.6970570  22.4515960  70.7614290  22.2308060
  25.7696020  78.6918660  19.1495190  24.8425300  78.6256040  19.3783660
  25.9220840  79.6298790  19.0350430  25.7565100  74.9635660  16.1462350
  24.8168770  75.1249620  16.2314810  26.0748360  75.6821340  15.5998340
  32.2777860  79.6454180  26.1241380  31.4496490  79.7147270  25.6491510
  32.8728340  80.2308490  25.6557210  29.7993310  80.2538960  19.6530440
  29.1805730  79.9158510  19.0056740  29.7817760  79.6098720  20.3609630
  29.2419870  76.4323500  27.0696250  28.8291050  77.2577210  27.3236240
  28.5095820  75.8468540  26.8772610  21.3752660  79.2183400  21.9314920
  20.9709660  78.5060650  21.4360820  21.4615780  78.8736640  22.8202960
  20.0881280  75.9926610  25.7113960  20.6395870  76.1021950  24.9367210
  20.6024790  76.3664210  26.4269190  27.9758010  79.4925770  16.6603190
  28.4151290  78.6548200  16.5141010  28.6886430  80.1255170  16.7467330
  19.7624010  79.5145970  29.3219300  19.6231780  80.3868770  29.6906700
  18.8805370  79.1718780  29.1767240  31.5575150  70.7468580  14.9744230
  31.2447810  70.8395410  15.8743300  32.3187620  71.3249610  14.9241660
  18.0757290  78.1128380  19.4321570  17.9554890  78.8390470  18.8202840
  17.7658180  77.3431290  18.9549480  32.7676440  75.4840080  30.9518370
  32.1520710  75.9919750  30.4233830  32.4472860  74.5838410  30.8944310
  20.5420950  71.4563450  22.8145240  20.0989100  72.2372990  22.4829760
  21.1005940  71.7793340  23.5216180  24.8290760  74.3231970  28.4180560
  24.3670130  74.5314990  29.2300500  24.4268870  73.5091320  28.1151230
  29.8295270  75.5440920  29.5477220  28.9788860  75.2446670  29.8686290
  29.6697060  75.7882930  28.6361040  26.9244980  77.0442670  31.6476010
  27.2498390  76.2106420  31.3078240  27.7125310  77.5671190  31.7954340
  23.6579770  71.0774150  17.6951070  23.0333950  71.0734020  18.4204380
  23.5709890  70.2105110  17.2987040  22.5796850  72.0010780  24.6734840
  22.8769180  72.9073610  24.5926860  23.1282410  71.5129560  24.0594410
  20.3335170  76.5797020  20.5426490  20.1076090  76.3634190  21.4473110
  19.5527700  77.0125480  20.1972460  27.5632930  76.5860390  19.1417140
  26.9641820  77.3096190  18.9580760  28.1112540  76.5237170  18.3593590
  22.7734380  77.4782600  31.2086760  22.6777980  76.5377330  31.0587160
  23.6166360  77.6997670  30.8134830  26.1697800  75.2223930  21.1720420
  26.5627370  75.5396130  20.3589110  26.5314650  74.3435810  21.2864940
  17.9044920  73.8896270  29.3620540  17.5108310  74.7371480  29.5693320
  17.2163320  73.2522640  29.5529180  24.4789970  73.9731240  32.4317280
  23.7888290  73.7803440  33.0663370  25.2222270  74.2565880  32.9641580
  15.2061970  71.8124730  23.3950620  14.9175020  72.3827590  24.1075600
  15.9507730  71.3329180  23.7581850  15.3932200  75.7544850  14.6053340
  15.3106870  76.6975610  14.7468330  15.0415260  75.6119760  13.7265690
  26.7552940  77.8129680  25.2671200  26.0234060  78.3216490  25.6161300
  26.3577280  76.9959660  24.9659980  23.1930330  74.4883880  23.6723690
  23.1966390  74.0473830  22.8228230  24.0881450  74.8101210  23.7795510
  19.0432710  74.3710370  22.6317900  18.7032760  74.8485600  23.3884950
  18.2810030  73.9175490  22.2719000  23.2550480  75.4895960  16.6630450
  23.3763300  75.4482440  17.6116270  22.8698990  76.3520110  16.5077180
  27.2178850  73.2663360  24.6794140  27.2351590  73.7172010  25.5235990
  26.9694430  72.3669000  24.8927580  22.2671980  77.7997100  16.0613750
  21.6988880  77.3515350  15.4349660  22.9760980  78.1589880  15.5278900
  30.6449600  70.6795540  30.5180520  30.9695370  69.9485200  31.0438500
  30.6806110  70.3609180  29.6161510  23.4938300  78.5485660  25.4189100
  23.8608430  78.0744230  26.1650440  23.3043360  79.4227230  25.7597440
  16.3578790  73.2929350  21.5482570  16.0725710  72.9285020  22.3861190
  16.2957650  72.5609810  20.9345710  21.2837670  77.5894300  27.7373310
  20.9794740  78.4686280  27.9623670  22.2384130  77.6494090  27.7730750
  30.5707440  80.7920650  24.1266550  31.2906560  81.2875940  23.7362660
  30.3689260  80.1138540  23.4820420  26.0317380  72.1858610  18.2695940
  25.2181990  71.6871780  18.1941250  25.8379330  73.0256860  17.8532290
  25.9526240  80.8629710  30.0135550  25.8863550  79.9425380  29.7593140
  25.3231380  80.9605150  30.7280190  28.7465770  76.5578260  16.5658100
  29.6345390  76.8695490  16.3909440  28.7170860  75.6850510  16.1738680
  17.3401400  78.4297040  28.8844670  16.9816340  79.0950890  29.4718010
  17.0455960  77.5980590  29.2557290  20.5414520  78.8881280  31.7684220
  20.2414660  79.0338460  30.8712040  21.3125760  78.3286570  31.6757610
  31.0180040  77.8690100  16.0337960  30.9343760  78.3004320  15.1834400
  31.7374230  78.3288450  16.4664780  32.0954180  80.3257620  29.1107930
  31.3702370  80.9186400  28.9137320  32.6229640  80.3181160  28.3121300
  15.8509450  78.4288300  15.5079270  16.7204300  78.7113100  15.7915190
  15.3599770  79.2424170  15.3928080  23.0144260  79.8161510  19.6287550
  23.4707040  80.6266760  19.8547740  22.6632470  79.4984650  20.4606040
  18.9156040  70.1599160  20.1010070  18.7870670  70.1517060  21.0494990
  18.0918060  70.4982250  19.7501080  15.9149970  71.9190280  29.5616770
  15.2008490  72.1187200  30.1669380  16.3345010  71.1429850  29.9331570
  17.8355960  80.2461770  17.6361330  17.2283910  80.9860670  17.6456630
  18.3105310  80.3361130  16.8099530  27.4088750  74.4112590  27.3118220
  27.7769570  73.5907800  27.6397790  26.5486950  74.4714480  27.7273870
  30.7750780  73.3669530  18.1205780  30.1463940  73.4715200  17.4064010
  30.2802700  73.5866310  18.9099660  22.7434810  75.6455480  19.5363660
  22.0350960  76.1141820  19.9777270  23.0279290  74.9877490  20.1708850
  24.3690740  77.0652180  27.5356190  24.8675990  77.5398000  28.2008040
  24.5113690  76.1415700  27.7426220  26.7750240  72.3706140  20.9759450
  26.6518020  72.3892270  20.0268960  27.7234800  72.4185080  21.0957850
  20.9469830  73.9540560  16.9114370  21.7960360  74.3910710  16.8454560
  20.5801100  74.2660820  17.7386430  31.5757600  73.2820140  28.3784580
  31.0731200  74.0225540  28.7178390  32.3914260  73.6704140  28.0621370
  29.8679610  78.5253320  21.8245940  28.9269750  78.5403550  21.9993630
  30.1823680  77.7389280  22.2706240  19.8461250  80.2072920  15.3849900
  20.6124520  80.0954280  15.9475330  19.9235940  79.5110890  14.7326670
  18.5408010  77.6397990  16.0682790  18.6211600  76.6925500  16.1800190
  19.4327760  77.9704870  16.1743450  16.0678810  79.4612910  31.3038960
  16.5717830  78.8820190  31.8755190  15.3286230  79.7453140  31.8415330
  18.1001890  77.6042500  32.1989030  18.1407230  77.3056370  33.1074260
  18.9547390  78.0050110  32.0396550  21.8780280  80.2038050  17.3592540
  22.2996700  80.0377920  18.2023930  22.0031120  79.3938280  16.8647680
  20.0407700  76.1834600  30.1663520  19.5104160  75.6925550  29.5386860
  20.7095770  76.6118800  29.6321450  24.3907920  79.2275660  14.6069640
  24.9113580  78.5124680  14.2410790  25.0376320  79.8661530  14.9070150
  28.9385760  80.6504060  29.9304710  29.3526780  80.8049140  30.7795130
  28.0036760  80.7759280  30.0930490  29.4107930  77.9900220  31.9343860
  29.9928700  77.2352540  31.8464340  29.5869700  78.5207660  31.1575340
  20.5280000  73.1496970  30.2460810  20.4336870  72.5317720  29.5211680
  19.9477390  73.8763260  30.0190720  23.2941440  71.7070210  27.2788200
  22.8458740  71.7294470  26.4333750  22.6606640  71.3089230  27.8758500
  26.0364890  78.3340720  29.2838480  26.1561100  77.7381860  30.0233320
  26.8958890  78.3710410  28.8639780  28.3752790  78.8877910  27.8600990
  27.8488010  79.4120530  27.2566130  28.7184130  79.5205300  28.4910720
  20.7739180  76.2771280  14.3050700  20.5728240  75.4138640  14.6664040
  20.6031230  76.1904640  13.3672300  22.8033660  74.8762070  30.5414300
  23.3933350  74.5677920  31.2292120  21.9853900  74.4041820  30.6974200
  27.6227090  74.4927880  30.7747320  26.9342610  73.8309420  30.7097310
  28.3433110  74.0466150  31.2195780  28.2527490  71.0879510  16.8337580
  28.5329780  70.2447410  17.1897000  27.4793220  71.3202620  17.3476330
  19.5721980  73.3771900  14.2928580  19.8747880  73.3839330  13.3847730
  20.3116570  73.0269760  14.7896240  22.7906910  72.3206520  15.2784780
  22.4428910  71.6430510  14.6987230  22.9919680  71.8596030  16.0928170
  32.6308210  80.3256240  17.4441490  33.3927120  80.8952890  17.5501180
  32.6462580  79.7583440  18.2149800  16.1312550  78.8494170  21.6749150
  15.4761390  78.5805810  21.0308850  16.9690500  78.7398650  21.2251130
  29.0802990  73.6435460  15.8967640  29.4987870  73.4566440  15.0564300
  28.7739050  72.7914510  16.2070570  32.5792720  78.5559600  19.5943440
  32.2036320  77.7887530  19.1624730  31.8495840  78.9382300  20.0818370
  17.1688480  79.2346740  26.2152490  17.5361520  79.1474140  27.0948510
  16.5999300  78.4713290  26.1159350  31.9692340  77.7031120  29.2282960
  31.7378430  77.4743870  28.3280910  32.2296890  78.6230670  29.1827850
  16.7204480  76.1455830  30.1210910  15.8260530  76.1122590  30.4604620
  17.2602030  76.3442620  30.8862160  30.4080410  72.9287550  32.0062660
  31.2850590  72.9370950  32.3896660  30.4201250  72.1918390  31.3955010
  15.3450630  76.0593100  17.6174480  14.4414710  76.3223300  17.4426140
  15.8291250  76.3304270  16.8374440  31.8543680  76.7817090  22.8950680
  32.3781160  76.2879740  22.2640850  32.4403100  76.9167450  23.6398250
  32.0333400  76.8656960  26.4170230  31.0836110  76.8320500  26.5315220
  32.2146410  77.7757070  26.1820000  17.8877840  75.1158640  15.5268860
  18.5969540  74.6941860  15.0416140  17.1717780  75.1833870  14.8952210
  17.5352000  71.1697970  14.5671510  18.2580130  71.7106910  14.8852730
  17.8076520  70.8961390  13.6913050  31.3443650  76.0390440  18.8343090
  31.8402770  75.8061310  19.6191970  31.1459720  75.2002280  18.4180730
  17.2244190  70.4204160  24.4694130  17.8720380  69.8701540  24.0289290
  17.6446030  70.6747310  25.2909940  32.7730810  74.6751390  21.3680770
  32.6630090  74.5207430  22.3063040  33.5338400  74.1472330  21.1256180
  31.1196530  70.6145520  27.8263770  31.7568750  71.2279660  28.1922960
  31.2671420  70.6506180  26.8813000  33.6621080  72.5059310  14.6086910
  34.5870390  72.3740490  14.4005200  33.6396870  72.5852130  15.5623360
  33.7359570  73.2769970  17.2343620  32.9411070  73.2115090  17.7636530
  33.9402850  74.2120610  17.2228970  16.9776190  70.5759830  27.2119450
  16.6291010  71.0323650  27.9777630  16.6463890  69.6816960  27.2941880
  24.4901010  71.7671710  30.7338870  24.4289900  72.3593540  31.4834280
  25.4301390  71.6597670  30.5889130  27.1275570  71.4241770  30.3731160
  27.7415980  71.7421060  29.7112240  27.6725130  70.9390360  30.9927020
  17.6496830  70.1036030  30.4870220  18.1979820  69.9224080  29.7236330
  17.7152140  69.3130140  31.0226530  27.8683610  69.9873910  26.7000450
  26.9943450  70.3209020  26.4973380  27.7594360  69.5147090  27.5252320
  28.7755590  72.1944780  28.0842170  28.4468950  71.3796540  27.7043900
  29.7237890  72.1514590  27.9607860  25.6158430  70.9043750  25.6393360
  24.8330220  71.3789250  25.9190120  25.3221360  69.9998580  25.5306540
  30.1679500  71.6066850  23.6842450  30.6087590  71.5511950  22.8364050
  29.8987090  72.5224860  23.7552630  32.0318070  71.2382090  21.6951270
  31.9706470  70.2943310  21.5482290  32.8110100  71.3462180  22.2404730
  16.9598840  71.2091230  18.1607080  17.7178200  71.3220110  17.5871110
  16.4976010  72.0460430  18.1150510  23.5012650  73.3230500  21.1509390
  22.6887160  72.9487390  20.8105270  24.0054290  72.5675580  21.4530580
  28.0037630  69.9872950  22.3892460  28.6067000  70.5593160  22.8640980
  27.2630620  70.5512390  22.1666360  31.1472230  70.3894510  17.6632740
  31.3422860  71.2877960  17.9300170  30.3602100  70.1581590  18.1565690
  19.3323990  71.7355280  16.7009050  19.8616750  70.9485080  16.5717000
  19.9652310  72.4146470  16.9344580  21.5261830  71.4730420  19.7554440
  20.8964570  70.7717730  19.9224570  20.9866970  72.2334550  19.5387600
  21.6517390  70.7514400  32.1906930  21.3701660  71.2548000  31.4267750
  22.0337090  69.9536150  31.8249060  28.2532850  70.1667980  32.7687400
  28.1398300  70.4862590  33.6638920  29.0702590  70.5680490  32.4724680
  27.1591000  78.1860450   3.1322140  27.0785050  77.2715060   2.8613850
  26.7455420  78.6827520   2.4261850  25.2909040  79.9639470   5.0131410
  24.5151140  79.4839910   5.3029980  25.9421970  79.2845120   4.8387570
  19.3074870  80.2759280   5.8907170  18.4759750  80.0207990   6.2903680
  19.9155850  80.3470050   6.6265090  15.6799830  77.8366820   5.5589260
  16.2515940  77.0689020   5.5592900  15.6801370  78.1355580   4.6495870
  16.9224700  73.2451180   7.3458190  16.7427540  72.3476930   7.6260950
  16.5204780  73.7923050   8.0205140  25.7623200  75.4467040   5.2470500
  26.1388020  74.5738920   5.1344170  25.6642710  75.7825740   4.3560940
  29.5447320  72.9417480   2.1798840  30.3656940  72.4514050   2.2224320
  29.5781400  73.5315140   2.9330680  17.5411370  75.7411680   5.9540530
  18.2221480  76.0050050   6.5727930  17.2259420  74.9012550   6.2878540
  21.7335940  76.7879040   5.0413120  22.2414160  77.2860010   5.6818140
  22.2649180  76.0114240   4.8652480  33.8346870  74.9584230   8.7442470
  33.1299040  75.3465940   8.2257580  34.1004790  75.6534520   9.3463400
  20.0172040  71.4277600   9.3076540  20.0190480  71.9449990   8.5022440
  19.1876350  70.9507780   9.2846470  29.7808800  74.8817860   4.9526380
  29.0764370  75.1702750   5.5329490  30.1420960  75.6917970   4.5925940
  19.6987370  73.1387560   7.3146990  20.0404180  73.9829610   7.0200860
  18.7603180  73.2871300   7.4312330  32.8495720  74.3272650   5.3435590
  31.9020630  74.3611630   5.4751020  33.1745710  75.1411600   5.7284950
  23.3815260  70.6269830   3.6391580  23.6890240  70.0716720   2.9227080
  22.4515960  70.7614290   3.4564570  32.2777860  79.6454180   7.3497890
  31.4496490  79.7147270   6.8748020  32.8728340  80.2308490   6.8813720
  29.2419870  76.4323500   8.2952760  28.8291050  77.2577210   8.5492750
  28.5095820  75.8468540   8.1029120  21.3752660  79.2183400   3.1571430
  20.9709660  78.5060650   2.6617330  21.4615780  78.8736640   4.0459470
  20.0881280  75.9926610   6.9370470  20.6395870  76.1021950   6.1623720
  20.6024790  76.3664210   7.6525700  19.7624010  79.5145970  10.5475810
  19.6231780  80.3868770  10.9163210  18.8805370  79.1718780  10.4023750
  32.7676440  75.4840080  12.1774880  32.1520710  75.9919750  11.6490340
  32.4472860  74.5838410  12.1200820  20.5420950  71.4563450   4.0401750
  20.0989100  72.2372990   3.7086270  21.1005940  71.7793340   4.7472690
  24.8290760  74.3231970   9.6437070  24.3670130  74.5314990  10.4557010
  24.4268870  73.5091320   9.3407740  29.8295270  75.5440920  10.7733730
  28.9788860  75.2446670  11.0942800  29.6697060  75.7882930   9.8617550
  26.9244980  77.0442670  12.8732520  27.2498390  76.2106420  12.5334750
  27.7125310  77.5671190  13.0210850  22.5796850  72.0010780   5.8991350
  22.8769180  72.9073610   5.8183370  23.1282410  71.5129560   5.2850920
  20.3335170  76.5797020   1.7683000  20.1076090  76.3634190   2.6729620
  19.5527700  77.0125480   1.4228970  22.7734380  77.4782600  12.4343270
  22.6777980  76.5377330  12.2843670  23.6166360  77.6997670  12.0391340
  26.1697800  75.2223930   2.3976930  26.5627370  75.5396130   1.5845620
  26.5314650  74.3435810   2.5121450  17.9044920  73.8896270  10.5877050
  17.5108310  74.7371480  10.7949830  17.2163320  73.2522640  10.7785690
  24.4789970  73.9731240  13.6573790  23.7888290  73.7803440  14.2919880
  25.2222270  74.2565880  14.1898090  15.2061970  71.8124730   4.6207130
  14.9175020  72.3827590   5.3332110  15.9507730  71.3329180   4.9838360
  26.7552940  77.8129680   6.4927710  26.0234060  78.3216490   6.8417810
  26.3577280  76.9959660   6.1916490  23.1930330  74.4883880   4.8980200
  23.1966390  74.0473830   4.0484740  24.0881450  74.8101210   5.0052020
  19.0432710  74.3710370   3.8574410  18.7032760  74.8485600   4.6141460
  18.2810030  73.9175490   3.4975510  27.2178850  73.2663360   5.9050650
  27.2351590  73.7172010   6.7492500  26.9694430  72.3669000   6.1184090
  30.6449600  70.6795540  11.7437030  30.9695370  69.9485200  12.2695010
  30.6806110  70.3609180  10.8418020  23.4938300  78.5485660   6.6445610
  23.8608430  78.0744230   7.3906950  23.3043360  79.4227230   6.9853950
  16.3578790  73.2929350   2.7739080  16.0725710  72.9285020   3.6117700
  16.2957650  72.5609810   2.1602220  21.2837670  77.5894300   8.9629820
  20.9794740  78.4686280   9.1880180  22.2384130  77.6494090   8.9987260
  30.5707440  80.7920650   5.3523060  31.2906560  81.2875940   4.9619170
  30.3689260  80.1138540   4.7076930  25.9526240  80.8629710  11.2392060
  25.8863550  79.9425380  10.9849650  25.3231380  80.9605150  11.9536700
  17.3401400  78.4297040  10.1101180  16.9816340  79.0950890  10.6974520
  17.0455960  77.5980590  10.4813800  20.5414520  78.8881280  12.9940730
  20.2414660  79.0338460  12.0968550  21.3125760  78.3286570  12.9014120
  32.0954180  80.3257620  10.3364440  31.3702370  80.9186400  10.1393830
  32.6229640  80.3181160   9.5377810  15.9149970  71.9190280  10.7873280
  15.2008490  72.1187200  11.3925890  16.3345010  71.1429850  11.1588080
  27.4088750  74.4112590   8.5374730  27.7769570  73.5907800   8.8654300
  26.5486950  74.4714480   8.9530380  24.3690740  77.0652180   8.7612700
  24.8675990  77.5398000   9.4264550  24.5113690  76.1415700   8.9682730
  31.5757600  73.2820140   9.6041090  31.0731200  74.0225540   9.9434900
  32.3914260  73.6704140   9.2877880  29.8679610  78.5253320   3.0502450
  28.9269750  78.5403550   3.2250140  30.1823680  77.7389280   3.4962750
  16.0678810  79.4612910  12.5295470  16.5717830  78.8820190  13.1011700
  15.3286230  79.7453140  13.0671840  18.1001890  77.6042500  13.4245540
  18.1407230  77.3056370  14.3330770  18.9547390  78.0050110  13.2653060
  20.0407700  76.1834600  11.3920030  19.5104160  75.6925550  10.7643370
  20.7095770  76.6118800  10.8577960  28.9385760  80.6504060  11.1561220
  29.3526780  80.8049140  12.0051640  28.0036760  80.7759280  11.3187000
  29.4107930  77.9900220  13.1600370  29.9928700  77.2352540  13.0720850
  29.5869700  78.5207660  12.3831850  20.5280000  73.1496970  11.4717320
  20.4336870  72.5317720  10.7468190  19.9477390  73.8763260  11.2447230
  23.2941440  71.7070210   8.5044710  22.8458740  71.7294470   7.6590260
  22.6606640  71.3089230   9.1015010  26.0364890  78.3340720  10.5094990
  26.1561100  77.7381860  11.2489830  26.8958890  78.3710410  10.0896290
  28.3752790  78.8877910   9.0857500  27.8488010  79.4120530   8.4822640
  28.7184130  79.5205300   9.7167230  22.8033660  74.8762070  11.7670810
  23.3933350  74.5677920  12.4548630  21.9853900  74.4041820  11.9230710
  27.6227090  74.4927880  12.0003830  26.9342610  73.8309420  11.9353820
  28.3433110  74.0466150  12.4452290  16.1312550  78.8494170   2.9005660
  15.4761390  78.5805810   2.2565360  16.9690500  78.7398650   2.4507640
  17.1688480  79.2346740   7.4409000  17.5361520  79.1474140   8.3205020
  16.5999300  78.4713290   7.3415860  31.9692340  77.7031120  10.4539470
  31.7378430  77.4743870   9.5537420  32.2296890  78.6230670  10.4084360
  16.7204480  76.1455830  11.3467420  15.8260530  76.1122590  11.6861130
  17.2602030  76.3442620  12.1118670  30.4080410  72.9287550  13.2319170
  31.2850590  72.9370950  13.6153170  30.4201250  72.1918390  12.6211520
  31.8543680  76.7817090   4.1207190  32.3781160  76.2879740   3.4897360
  32.4403100  76.9167450   4.8654760  32.0333400  76.8656960   7.6426740
  31.0836110  76.8320500   7.7571730  32.2146410  77.7757070   7.4076510
  17.2244190  70.4204160   5.6950640  17.8720380  69.8701540   5.2545800
  17.6446030  70.6747310   6.5166450  32.7730810  74.6751390   2.5937280
  32.6630090  74.5207430   3.5319550  33.5338400  74.1472330   2.3512690
  31.1196530  70.6145520   9.0520280  31.7568750  71.2279660   9.4179470
  31.2671420  70.6506180   8.1069510  16.9776190  70.5759830   8.4375960
  16.6291010  71.0323650   9.2034140  16.6463890  69.6816960   8.5198390
  24.4901010  71.7671710  11.9595380  24.4289900  72.3593540  12.7090790
  25.4301390  71.6597670  11.8145640  27.1275570  71.4241770  11.5987670
  27.7415980  71.7421060  10.9368750  27.6725130  70.9390360  12.2183530
  17.6496830  70.1036030  11.7126730  18.1979820  69.9224080  10.9492840
  17.7152140  69.3130140  12.2483040  27.8683610  69.9873910   7.9256960
  26.9943450  70.3209020   7.7229890  27.7594360  69.5147090   8.7508830
  28.7755590  72.1944780   9.3098680  28.4468950  71.3796540   8.9300410
  29.7237890  72.1514590   9.1864370  25.6158430  70.9043750   6.8649870
  24.8330220  71.3789250   7.1446630  25.3221360  69.9998580   6.7563050
  30.1679500  71.6066850   4.9098960  30.6087590  71.5511950   4.0620560
  29.8987090  72.5224860   4.9809140  32.0318070  71.2382090   2.9207780
  31.9706470  70.2943310   2.7738800  32.8110100  71.3462180   3.4661240
  23.5012650  73.3230500   2.3765900  22.6887160  72.9487390   2.0361780
  24.0054290  72.5675580   2.6787090  28.0037630  69.9872950   3.6148970
  28.6067000  70.5593160   4.0897490  27.2630620  70.5512390   3.3922870
  21.6517390  70.7514400  13.4163440  21.3701660  71.2548000  12.6524260
  22.0337090  69.9536150  13.0505570  28.2532850  70.1667980  13.9943910
  28.1398300  70.4862590  14.8895430  29.0702590  70.5680490  13.6981190
  27.1591000  59.4116960  78.2296100  27.0785050  58.4971570  77.9587810
  26.7455420  59.9084030  77.5235810  25.2909040  61.1895980  80.1105370
  24.5151140  60.7096420  80.4003940  25.9421970  60.5101630  79.9361530
  19.3074870  61.5015790  80.9881130  18.4759750  61.2464500  81.3877640
  19.9155850  61.5726560  81.7239050  29.3116470  65.5956170  78.8904500
  28.8498000  64.8243410  79.2191670  30.1242020  65.6222240  79.3956950
  19.2876130  65.5355880  81.1839150  19.5904170  64.6453620  81.0049370
  20.0319720  66.0926100  80.9561400  17.7166820  56.4617680  74.7723520
  16.8283520  56.8033650  74.6703400  18.0008010  56.2618000  73.8804350
  15.6799830  59.0623330  80.6563220  16.2515940  58.2945530  80.6566860
  15.6801370  59.3612090  79.7469830  25.5379780  67.8814180  78.5108490
  24.9191220  68.3371680  77.9402930  26.3931560  68.0365640  78.1098190
  24.7318030  63.8653170  80.1175530  24.6626310  62.9243110  79.9564660
  25.4937890  63.9554580  80.6898100  16.9224700  54.4707690  82.4432150
  16.7427540  53.5733440  82.7234910  16.5204780  55.0179560  83.1179100
  25.7623200  56.6723550  80.3444460  26.1388020  55.7995430  80.2318130
  25.6642710  57.0082250  79.4534900  19.8928210  55.0449180  75.8061900
  19.9994960  55.9452910  76.1130660  18.9820570  54.9967150  75.5156550
  29.5447320  54.1673990  77.2772800  30.3656940  53.6770560  77.3198280
  29.5781400  54.7571650  78.0304640  17.5411370  56.9668190  81.0514490
  18.2221480  57.2306560  81.6701890  17.2259420  56.1269060  81.3852500
  21.7335940  58.0135550  80.1387080  22.2414160  58.5116520  80.7792100
  22.2649180  57.2370750  79.9626440  26.4043130  62.7653420  75.9040400
  25.7860400  63.2302870  75.3403120  26.9166380  63.4580900  76.3209910
  21.2674890  62.2929290  82.5824000  20.9344270  62.9198210  83.2245070
  21.4441570  62.8191170  81.8025670  29.7808800  56.1074370  80.0500340
  29.0764370  56.3959260  80.6303450  30.1420960  56.9174480  79.6899900
  19.6987370  54.3644070  82.4120950  20.0404180  55.2086120  82.1174820
  18.7603180  54.5127810  82.5286290  15.7726330  63.4509950  73.2780030
  15.3954310  63.9397050  72.5464930  16.0299400  64.1235230  73.9086560
  31.3971580  65.7249500  82.3127820  30.7135100  66.3948610  82.3044490
  31.9365870  65.9230150  81.5472680  32.8495720  55.5529160  80.4409550
  31.9020630  55.5868140  80.5724980  33.1745710  56.3668110  80.8258910
  23.3815260  51.8526340  78.7365540  23.6890240  51.2973230  78.0201040
  22.4515960  51.9870800  78.5538530  28.9330320  67.5693630  81.0273000
  28.9457480  67.1655920  80.1595260  28.3805540  68.3440920  80.9234430
  30.2275740  64.2909850  76.1163170  30.1172070  63.3484180  76.2412590
  30.2243990  64.6525490  77.0025930  28.3315760  62.4723470  82.3555610
  28.7484550  62.2583580  81.5209070  29.0555580  62.7296260  82.9264230
  25.7696020  59.9175170  75.4725660  24.8425300  59.8512550  75.7014130
  25.9220840  60.8555300  75.3580900  25.7565100  56.1892170  72.4692820
  24.8168770  56.3506130  72.5545280  26.0748360  56.9077850  71.9228810
  32.2777860  60.8710690  82.4471850  31.4496490  60.9403780  81.9721980
  32.8728340  61.4565000  81.9787680  29.7993310  61.4795470  75.9760910
  29.1805730  61.1415020  75.3287210  29.7817760  60.8355230  76.6840100
  21.3752660  60.4439910  78.2545390  20.9709660  59.7317160  77.7591290
  21.4615780  60.0993150  79.1433430  21.8434360  64.1307470  80.4184600
  21.5462650  63.5252940  79.7392380  22.7934180  64.1684780  80.3073960
  20.0881280  57.2183120  82.0344430  20.6395870  57.3278460  81.2597680
  20.6024790  57.5920720  82.7499660  27.9758010  60.7182280  72.9833660
  28.4151290  59.8804710  72.8371480  28.6886430  61.3511680  73.0697800
  26.0853390  65.6578350  76.9514900  26.5249300  66.4002680  76.5370290
  26.0240280  65.9004920  77.8753860  31.5575150  51.9725090  71.2974700
  31.2447810  52.0651920  72.1973770  32.3187620  52.5506120  71.2472130
  18.0757290  59.3384890  75.7552040  17.9554890  60.0646980  75.1433310
  17.7658180  58.5687800  75.2779950  15.7142660  62.5100030  81.5620680
  15.7923080  62.6448800  80.6176400  16.3284340  61.8015920  81.7548800
  16.9590290  64.2100220  77.9726860  16.5518370  64.3514810  77.1180460
  17.8503300  63.9260380  77.7698070  28.7523570  68.6447470  74.3077910
  28.5924710  68.3550410  75.2059740  28.5870280  67.8687600  73.7723140
  21.2311950  68.4246000  76.0849530  21.0554430  67.5081540  75.8717330
  20.3767690  68.7833290  76.3247330  28.4549700  66.1535030  72.8675910
  27.7614860  66.1512320  72.2078190  29.1972560  65.7294350  72.4370080
  28.0199630  67.7797740  76.9424400  28.4756580  66.9987120  77.2563020
  28.3592150  68.4904560  77.4865580  20.5420950  52.6819960  79.1375710
  20.0989100  53.4629500  78.8060230  21.1005940  53.0049850  79.8446650
  23.6579770  52.3030660  74.0181540  23.0333950  52.2990530  74.7434850
  23.5709890  51.4361620  73.6217510  22.5796850  53.2267290  80.9965310
  22.8769180  54.1330120  80.9157330  23.1282410  52.7386070  80.3824880
  20.3335170  57.8053530  76.8656960  20.1076090  57.5890700  77.7703580
  19.5527700  58.2381990  76.5202930  27.5632930  57.8116900  75.4647610
  26.9641820  58.5352700  75.2811230  28.1112540  57.7493680  74.6824060
  26.1697800  56.4480440  77.4950890  26.5627370  56.7652640  76.6819580
  26.5314650  55.5692320  77.6095410  15.2061970  53.0381240  79.7181090
  14.9175020  53.6084100  80.4306070  15.9507730  52.5585690  80.0812320
  15.3932200  56.9801360  70.9283810  15.3106870  57.9232120  71.0698800
  15.0415260  56.8376270  70.0496160  26.7552940  59.0386190  81.5901670
  26.0234060  59.5473000  81.9391770  26.3577280  58.2216170  81.2890450
  23.1930330  55.7140390  79.9954160  23.1966390  55.2730340  79.1458700
  24.0881450  56.0357720  80.1025980  19.0432710  55.5966880  78.9548370
  18.7032760  56.0742110  79.7115420  18.2810030  55.1432000  78.5949470
  23.2550480  56.7152470  72.9860920  23.3763300  56.6738950  73.9346740
  22.8698990  57.5776620  72.8307650  27.2178850  54.4919870  81.0024610
  27.2351590  54.9428520  81.8466460  26.9694430  53.5925510  81.2158050
  22.2671980  59.0253610  72.3844220  21.6988880  58.5771860  71.7580130
  22.9760980  59.3846390  71.8509370  23.4938300  59.7742170  81.7419570
  23.8608430  59.3000740  82.4880910  23.3043360  60.6483740  82.0827910
  16.3578790  54.5185860  77.8713040  16.0725710  54.1541530  78.7091660
  16.2957650  53.7866320  77.2576180  19.8119460  63.0211800  74.6570630
  19.0381720  62.4809420  74.4969350  20.5414090  62.5018410  74.3188390
  30.5707440  62.0177160  80.4497020  31.2906560  62.5132450  80.0593130
  30.3689260  61.3395050  79.8050890  26.0317380  53.4115120  74.5926410
  25.2181990  52.9128290  74.5171720  25.8379330  54.2513370  74.1762760
  28.7465770  57.7834770  72.8888570  29.6345390  58.0952000  72.7139910
  28.7170860  56.9107020  72.4969150  19.8556860  62.6892180  78.2949440
  20.3735530  61.8860440  78.2406330  19.4040880  62.6271320  79.1366270
  24.7426360  63.9558460  73.5676740  25.0842060  64.7000690  73.0720060
  23.9139070  64.2689580  73.9301570  31.0180040  59.0946610  72.3568430
  30.9343760  59.5260830  71.5064870  31.7374230  59.5544960  72.7895250
  32.0467290  65.9488870  75.0850560  31.4043450  65.2944490  75.3594280
  31.6597950  66.3543960  74.3091230  27.6253770  63.2774300  78.9322250
  27.9777590  62.6802430  78.2723620  26.7416100  62.9518530  79.1030500
  23.7117050  64.0371990  76.3392660  24.3988180  64.5841200  76.7200250
  22.9249470  64.5812720  76.3742270  15.8509450  59.6544810  71.8309740
  16.7204300  59.9369610  72.1145660  15.3599770  60.4680680  71.7158550
  23.0144260  61.0418020  75.9518020  23.4707040  61.8523270  76.1778210
  22.6632470  60.7241160  76.7836510  18.9156040  51.3855670  76.4240540
  18.7870670  51.3773570  77.3725460  18.0918060  51.7238760  76.0731550
  26.5908950  64.5556710  81.8987770  27.2331180  63.8549870  82.0119940
  27.1158300  65.3355150  81.7184660  30.4364670  64.8405330  71.6226910
  30.2102250  64.1235770  72.2151550  30.0460870  64.5917770  70.7848660
  16.2180700  68.8672190  72.3971370  16.5778340  69.4661530  71.7428640
  16.0773040  69.4132080  73.1706400  30.0180920  62.7577270  73.2841070
  29.7302620  63.2189960  74.0718950  30.8133090  62.2975040  73.5525290
  22.2349320  66.2503390  73.2145040  22.2259420  66.9833080  72.5989550
  21.3147680  66.0034970  73.3072000  17.8355960  61.4718280  73.9591800
  17.2283910  62.2117180  73.9687100  18.3105310  61.5617640  73.1330000
  30.7750780  54.5926040  74.4436250  30.1463940  54.6971710  73.7294480
  30.2802700  54.8122820  75.2330130  25.2208920  66.3131630  71.8770230
  25.3220900  66.1095620  70.9472210  24.3210660  66.0589910  72.0818010
  22.7434810  56.8711990  75.8594130  22.0350960  57.3398330  76.3007740
  23.0279290  56.2134000  76.4939320  26.7750240  53.5962650  77.2989920
  26.6518020  53.6148780  76.3499430  27.7234800  53.6441590  77.4188320
  23.8627030  68.8317950  76.5717900  24.1168530  68.7939340  75.6497270
  22.9139510  68.7051280  76.5646150  20.9469830  55.1797070  73.2344840
  21.7960360  55.6167220  73.1685030  20.5801100  55.4917330  74.0616900
  29.8679610  59.7509830  78.1476410  28.9269750  59.7660060  78.3224100
  30.1823680  58.9645790  78.5936710  19.8461250  61.4329430  71.7080370
  20.6124520  61.3210790  72.2705800  19.9235940  60.7367400  71.0557140
  18.5408010  58.8654500  72.3913260  18.6211600  57.9182010  72.5030660
  19.4327760  59.1961380  72.4973920  31.8705190  66.9218680  79.8230670
  31.9952610  67.7449850  80.2954480  32.7370750  66.7109410  79.4754820
  19.3422720  69.0149890  79.4947800  20.0785200  68.4665350  79.7656370
  19.7263640  69.8805900  79.3553790  16.2268200  65.0823460  75.3689310
  15.3007980  65.3244600  75.3594720  16.6924630  65.9097720  75.2474060
  22.4525030  68.1880200  71.3173370  23.2453640  68.4769030  70.8655160
  21.9329380  67.7572370  70.6385850  31.5055200  67.4150330  72.7410110
  31.2196710  67.0015470  71.9264290  31.3074750  68.3438040  72.6210630
  22.9702430  63.4083610  71.1815720  22.8653070  62.7935960  71.9077100
  22.8026650  62.8849500  70.3978730  26.2105160  62.4703640  71.7857710
  25.6615260  62.9172940  72.4300450  26.8324420  61.9652890  72.3095380
  21.8780280  61.4294560  73.6823010  22.2996700  61.2634430  74.5254400
  22.0031120  60.6194790  73.1878150  24.3907920  60.4532170  70.9300110
  24.9113580  59.7381190  70.5641260  25.0376320  61.0918040  71.2300620
  20.7739180  57.5027790  70.6281170  20.5728240  56.6395150  70.9894510
  20.6031230  57.4161150  69.6902770  28.2527490  52.3136020  73.1568050
  28.5329780  51.4703920  73.5127470  27.4793220  52.5459130  73.6706800
  19.5721980  54.6028410  70.6159050  19.8747880  54.6095840  69.7078200
  20.3116570  54.2526270  71.1126710  22.7906910  53.5463030  71.6015250
  22.4428910  52.8687020  71.0217700  22.9919680  53.0852540  72.4158640
  24.9555950  68.5343780  73.2201850  25.8506740  68.8728750  73.2420610
  24.9873580  67.8123190  72.5926130  18.5952110  63.9070830  71.4488850
  19.0326980  64.4500500  72.1046430  19.0799840  63.0817780  71.4585190
  15.8097910  66.6959860  78.9009110  16.1400920  65.8280920  78.6687750
  16.2388910  66.9018380  79.7314070  20.4059830  65.0268870  76.5611080
  20.1055370  64.9033840  77.4614990  20.2997320  64.1677460  76.1526810
  16.2988120  67.5630450  81.6390740  15.8619110  67.7431250  82.4714890
  16.8665800  68.3205070  81.4972460  33.1751750  64.8065270  71.2637760
  32.3444710  64.8741920  71.7344990  33.3523580  65.6969390  70.9604620
  32.6308210  61.5512750  73.7671960  33.3927120  62.1209400  73.8731650
  32.6462580  60.9839950  74.5380270  16.1312550  60.0750680  77.9979620
  15.4761390  59.8062320  77.3539320  16.9690500  59.9655160  77.5481600
  33.6368180  62.4062850  78.6113890  34.0077010  61.6230170  78.2049860
  34.2770110  63.0951950  78.4331190  32.6827380  61.8447120  70.9244480
  32.9576220  62.7526000  70.7963700  32.4938120  61.7809650  71.8606470
  29.0802990  54.8691970  72.2198110  29.4987870  54.6822950  71.3794770
  28.7739050  54.0171020  72.5301040  32.5792720  59.7816110  75.9173910
  32.2036320  59.0144040  75.4855200  31.8495840  60.1638810  76.4048840
  15.3450630  57.2849610  73.9404950  14.4414710  57.5479810  73.7656610
  15.8291250  57.5560780  73.1604910  31.8543680  58.0073600  79.2181150
  32.3781160  57.5136250  78.5871320  32.4403100  58.1423960  79.9628720
  32.0333400  58.0913470  82.7400700  31.0836110  58.0577010  82.8545690
  32.2146410  59.0013580  82.5050470  17.8877840  56.3415150  71.8499330
  18.5969540  55.9198370  71.3646610  17.1717780  56.4090380  71.2182680
  17.5352000  52.3954480  70.8901980  18.2580130  52.9363420  71.2083200
  17.8076520  52.1217900  70.0143520  31.3443650  57.2646950  75.1573560
  31.8402770  57.0317820  75.9422440  31.1459720  56.4258790  74.7411200
  17.2244190  51.6460670  80.7924600  17.8720380  51.0958050  80.3519760
  17.6446030  51.9003820  81.6140410  32.7730810  55.9007900  77.6911240
  32.6630090  55.7463940  78.6293510  33.5338400  55.3728840  77.4486650
  33.6621080  53.7315820  70.9317380  34.5870390  53.5997000  70.7235670
  33.6396870  53.8108640  71.8853830  33.7359570  54.5026480  73.5574090
  32.9411070  54.4371600  74.0867000  33.9402850  55.4377120  73.5459440
  30.6777990  68.5418030  77.5512480  31.2737060  68.2202600  76.8746900
  30.9356140  68.0689850  78.3425750  31.2290200  69.1913330  81.3810210
  30.7693170  69.9429140  81.0068230  30.6002660  68.4719800  81.3225010
  21.6585920  67.5001570  80.5558340  22.1750940  66.8888930  80.0306600
  22.3083300  68.0030350  81.0469350  24.3981420  68.3910060  81.3827320
  24.6859230  68.1364360  80.5060330  24.9104640  67.8387420  81.9732890
  25.6158430  52.1300260  81.9623830  24.8330220  52.6045760  82.2420590
  25.3221360  51.2255090  81.8537010  30.1679500  52.8323360  80.0072920
  30.6087590  52.7768460  79.1594520  29.8987090  53.7481370  80.0783100
  32.0318070  52.4638600  78.0181740  31.9706470  51.5199820  77.8712760
  32.8110100  52.5718690  78.5635200  16.3370820  68.6030960  76.9805690
  16.1692860  67.9701640  77.6787580  15.4705330  68.8090360  76.6299880
  16.9598840  52.4347740  74.4837550  17.7178200  52.5476620  73.9101580
  16.4976010  53.2716940  74.4380980  23.5012650  54.5487010  77.4739860
  22.6887160  54.1743900  77.1335740  24.0054290  53.7932090  77.7761050
  28.0037630  51.2129460  78.7122930  28.6067000  51.7849670  79.1871450
  27.2630620  51.7768900  78.4896830  31.1472230  51.6151020  73.9863210
  31.3422860  52.5134470  74.2530640  30.3602100  51.3838100  74.4796160
  17.9433520  67.2964190  74.4255830  17.4181140  67.6772220  73.7217790
  17.8678100  67.9214960  75.1465540  19.3323990  52.9611790  73.0239520
  19.8616750  52.1741590  72.8947470  19.9652310  53.6402980  73.2575050
  21.5261830  52.6986930  76.0784910  20.8964570  51.9974240  76.2455040
  20.9866970  53.4591060  75.8618070  32.6998840  68.8551730  75.7469770
  32.8751030  68.1689470  75.1030690  32.0020410  69.3798780  75.3546440
  20.5426490  69.2446570  73.3005080  21.2745310  68.9605850  72.7528970
  20.8020160  69.0059850  74.1904460  19.7041280  65.3611300  73.3051410
  19.0750160  65.8296400  73.8537240  19.8189110  64.5160520  73.7397600
  27.1591000  59.4116960  59.4552610  27.0785050  58.4971570  59.1844320
  26.7455420  59.9084030  58.7492320  25.2909040  61.1895980  61.3361880
  24.5151140  60.7096420  61.6260450  25.9421970  60.5101630  61.1618040
  19.3074870  61.5015790  62.2137640  18.4759750  61.2464500  62.6134150
  19.9155850  61.5726560  62.9495560  29.3116470  65.5956170  60.1161010
  28.8498000  64.8243410  60.4448180  30.1242020  65.6222240  60.6213460
  19.2876130  65.5355880  62.4095660  19.5904170  64.6453620  62.2305880
  20.0319720  66.0926100  62.1817910  17.7166820  56.4617680  55.9980030
  16.8283520  56.8033650  55.8959910  18.0008010  56.2618000  55.1060860
  15.6799830  59.0623330  61.8819730  16.2515940  58.2945530  61.8823370
  15.6801370  59.3612090  60.9726340  25.5379780  67.8814180  59.7365000
  24.9191220  68.3371680  59.1659440  26.3931560  68.0365640  59.3354700
  24.7318030  63.8653170  61.3432040  24.6626310  62.9243110  61.1821170
  25.4937890  63.9554580  61.9154610  16.9224700  54.4707690  63.6688660
  16.7427540  53.5733440  63.9491420  16.5204780  55.0179560  64.3435610
  25.7623200  56.6723550  61.5700970  26.1388020  55.7995430  61.4574640
  25.6642710  57.0082250  60.6791410  19.8928210  55.0449180  57.0318410
  19.9994960  55.9452910  57.3387170  18.9820570  54.9967150  56.7413060
  17.5411370  56.9668190  62.2771000  18.2221480  57.2306560  62.8958400
  17.2259420  56.1269060  62.6109010  21.7335940  58.0135550  61.3643590
  22.2414160  58.5116520  62.0048610  22.2649180  57.2370750  61.1882950
  33.8346870  56.1840740  65.0672940  33.1299040  56.5722450  64.5488050
  34.1004790  56.8791030  65.6693870  20.0172040  52.6534110  65.6307010
  20.0190480  53.1706500  64.8252910  19.1876350  52.1764290  65.6076940
  26.4043130  62.7653420  57.1296910  25.7860400  63.2302870  56.5659630
  26.9166380  63.4580900  57.5466420  21.2674890  62.2929290  63.8080510
  20.9344270  62.9198210  64.4501580  21.4441570  62.8191170  63.0282180
  29.7808800  56.1074370  61.2756850  29.0764370  56.3959260  61.8559960
  30.1420960  56.9174480  60.9156410  19.6987370  54.3644070  63.6377460
  20.0404180  55.2086120  63.3431330  18.7603180  54.5127810  63.7542800
  20.4793990  64.2610090  65.6229690  21.0967990  64.9361170  65.3414140
  19.6187110  64.6698070  65.5317190  15.7726330  63.4509950  54.5036540
  15.3954310  63.9397050  53.7721440  16.0299400  64.1235230  55.1343070
  31.3971580  65.7249500  63.5384330  30.7135100  66.3948610  63.5301000
  31.9365870  65.9230150  62.7729190  32.8495720  55.5529160  61.6666060
  31.9020630  55.5868140  61.7981490  33.1745710  56.3668110  62.0515420
  23.3815260  51.8526340  59.9622050  23.6890240  51.2973230  59.2457550
  22.4515960  51.9870800  59.7795040  28.9330320  67.5693630  62.2529510
  28.9457480  67.1655920  61.3851770  28.3805540  68.3440920  62.1490940
  30.2275740  64.2909850  57.3419680  30.1172070  63.3484180  57.4669100
  30.2243990  64.6525490  58.2282440  28.3315760  62.4723470  63.5812120
  28.7484550  62.2583580  62.7465580  29.0555580  62.7296260  64.1520740
  25.7696020  59.9175170  56.6982170  24.8425300  59.8512550  56.9270640
  25.9220840  60.8555300  56.5837410  25.7565100  56.1892170  53.6949330
  24.8168770  56.3506130  53.7801790  26.0748360  56.9077850  53.1485320
  32.2777860  60.8710690  63.6728360  31.4496490  60.9403780  63.1978490
  32.8728340  61.4565000  63.2044190  29.7993310  61.4795470  57.2017420
  29.1805730  61.1415020  56.5543720  29.7817760  60.8355230  57.9096610
  29.2419870  57.6580010  64.6183230  28.8291050  58.4833720  64.8723220
  28.5095820  57.0725050  64.4259590  21.3752660  60.4439910  59.4801900
  20.9709660  59.7317160  58.9847800  21.4615780  60.0993150  60.3689940
  21.8434360  64.1307470  61.6441110  21.5462650  63.5252940  60.9648890
  22.7934180  64.1684780  61.5330470  20.0881280  57.2183120  63.2600940
  20.6395870  57.3278460  62.4854190  20.6024790  57.5920720  63.9756170
  29.9319970  67.7039340  65.3064210  29.4550530  68.5111530  65.1136820
  29.2481760  67.0517670  65.4590420  20.9352790  63.8689160  68.2948910
  20.0381320  64.0929130  68.5422310  20.9605660  63.9924100  67.3460310
  27.9758010  60.7182280  54.2090170  28.4151290  59.8804710  54.0627990
  28.6886430  61.3511680  54.2954310  19.7624010  60.7402480  66.8706280
  19.6231780  61.6125280  67.2393680  18.8805370  60.3975290  66.7254220
  26.0853390  65.6578350  58.1771410  26.5249300  66.4002680  57.7626800
  26.0240280  65.9004920  59.1010370  21.5604360  66.6824180  69.0791430
  21.5319790  67.0867130  68.2119860  21.3969330  65.7534540  68.9163030
  18.0757290  59.3384890  56.9808550  17.9554890  60.0646980  56.3689820
  17.7658180  58.5687800  56.5036460  33.5119180  67.4651280  70.3755600
  33.9878900  67.9434170  71.0544680  34.1326340  67.3968770  69.6501100
  15.7142660  62.5100030  62.7877190  15.7923080  62.6448800  61.8432910
  16.3284340  61.8015920  62.9805310  16.9590290  64.2100220  59.1983370
  16.5518370  64.3514810  58.3436970  17.8503300  63.9260380  58.9954580
  32.9152430  64.6564130  67.5355610  33.0415490  64.4176010  66.6172790
  32.9573810  63.8248670  68.0077690  26.7769170  68.3592130  66.1050420
  27.2913840  68.2700140  66.9072850  25.9338250  68.7051830  66.3978330
  28.7523570  68.6447470  55.5334420  28.5924710  68.3550410  56.4316250
  28.5870280  67.8687600  54.9979650  21.2311950  68.4246000  57.3106040
  21.0554430  67.5081540  57.0973840  20.3767690  68.7833290  57.5503840
  28.4549700  66.1535030  54.0932420  27.7614860  66.1512320  53.4334700
  29.1972560  65.7294350  53.6626590  28.0199630  67.7797740  58.1680910
  28.4756580  66.9987120  58.4819530  28.3592150  68.4904560  58.7122090
  32.7676440  56.7096590  68.5005350  32.1520710  57.2176260  67.9720810
  32.4472860  55.8094920  68.4431290  15.7702180  63.5514200  65.3271650
  15.9333220  63.0819560  64.5091020  16.2354630  63.0437760  65.9920490
  20.5420950  52.6819960  60.3632220  20.0989100  53.4629500  60.0316740
  21.1005940  53.0049850  61.0703160  24.8290760  55.5488480  65.9667540
  24.3670130  55.7571500  66.7787480  24.4268870  54.7347830  65.6638210
  29.8295270  56.7697430  67.0964200  28.9788860  56.4703180  67.4173270
  29.6697060  57.0139440  66.1848020  26.9244980  58.2699180  69.1962990
  27.2498390  57.4362930  68.8565220  27.7125310  58.7927700  69.3441320
  23.6579770  52.3030660  55.2438050  23.0333950  52.2990530  55.9691360
  23.5709890  51.4361620  54.8474020  22.5796850  53.2267290  62.2221820
  22.8769180  54.1330120  62.1413840  23.1282410  52.7386070  61.6081390
  20.3335170  57.8053530  58.0913470  20.1076090  57.5890700  58.9960090
  19.5527700  58.2381990  57.7459440  27.5632930  57.8116900  56.6904120
  26.9641820  58.5352700  56.5067740  28.1112540  57.7493680  55.9080570
  22.7734380  58.7039110  68.7573740  22.6777980  57.7633840  68.6074140
  23.6166360  58.9254180  68.3621810  26.1697800  56.4480440  58.7207400
  26.5627370  56.7652640  57.9076090  26.5314650  55.5692320  58.8351920
  17.9044920  55.1152780  66.9107520  17.5108310  55.9627990  67.1180300
  17.2163320  54.4779150  67.1016160  24.4789970  55.1987750  69.9804260
  23.7888290  55.0059950  70.6150350  25.2222270  55.4822390  70.5128560
  15.2061970  53.0381240  60.9437600  14.9175020  53.6084100  61.6562580
  15.9507730  52.5585690  61.3068830  15.3932200  56.9801360  52.1540320
  15.3106870  57.9232120  52.2955310  15.0415260  56.8376270  51.2752670
  26.7552940  59.0386190  62.8158180  26.0234060  59.5473000  63.1648280
  26.3577280  58.2216170  62.5146960  23.1930330  55.7140390  61.2210670
  23.1966390  55.2730340  60.3715210  24.0881450  56.0357720  61.3282490
  19.0432710  55.5966880  60.1804880  18.7032760  56.0742110  60.9371930
  18.2810030  55.1432000  59.8205980  23.2550480  56.7152470  54.2117430
  23.3763300  56.6738950  55.1603250  22.8698990  57.5776620  54.0564160
  27.2178850  54.4919870  62.2281120  27.2351590  54.9428520  63.0722970
  26.9694430  53.5925510  62.4414560  22.2671980  59.0253610  53.6100730
  21.6988880  58.5771860  52.9836640  22.9760980  59.3846390  53.0765880
  30.6449600  51.9052050  68.0667500  30.9695370  51.1741710  68.5925480
  30.6806110  51.5865690  67.1648490  17.3441160  62.9265630  67.4867460
  16.9595950  62.2859300  68.0850420  17.6553350  63.6301750  68.0562190
  23.4938300  59.7742170  62.9676080  23.8608430  59.3000740  63.7137420
  23.3043360  60.6483740  63.3084420  16.3578790  54.5185860  59.0969550
  16.0725710  54.1541530  59.9348170  16.2957650  53.7866320  58.4832690
  21.2837670  58.8150810  65.2860290  20.9794740  59.6942790  65.5110650
  22.2384130  58.8750600  65.3217730  19.8119460  63.0211800  55.8827140
  19.0381720  62.4809420  55.7225860  20.5414090  62.5018410  55.5444900
  30.5707440  62.0177160  61.6753530  31.2906560  62.5132450  61.2849640
  30.3689260  61.3395050  61.0307400  26.0317380  53.4115120  55.8182920
  25.2181990  52.9128290  55.7428230  25.8379330  54.2513370  55.4019270
  25.9526240  62.0886220  67.5622530  25.8863550  61.1681890  67.3080120
  25.3231380  62.1861660  68.2767170  28.7465770  57.7834770  54.1145080
  29.6345390  58.0952000  53.9396420  28.7170860  56.9107020  53.7225660
  19.8556860  62.6892180  59.5205950  20.3735530  61.8860440  59.4662840
  19.4040880  62.6271320  60.3622780  24.7426360  63.9558460  54.7933250
  25.0842060  64.7000690  54.2976570  23.9139070  64.2689580  55.1558080
  17.3401400  59.6553550  66.4331650  16.9816340  60.3207400  67.0204990
  17.0455960  58.8237100  66.8044270  20.5414520  60.1137790  69.3171200
  20.2414660  60.2594970  68.4199020  21.3125760  59.5543080  69.2244590
  25.8842970  64.9106790  67.3126330  25.8987510  63.9787750  67.0945240
  25.1768070  64.9966550  67.9516100  32.0954180  61.5514130  66.6594910
  31.3702370  62.1442910  66.4624300  32.6229640  61.5437670  65.8608280
  32.0467290  65.9488870  56.3107070  31.4043450  65.2944490  56.5850790
  31.6597950  66.3543960  55.5347740  27.6253770  63.2774300  60.1578760
  27.9777590  62.6802430  59.4980130  26.7416100  62.9518530  60.3287010
  23.7117050  64.0371990  57.5649170  24.3988180  64.5841200  57.9456760
  22.9249470  64.5812720  57.5998780  15.8509450  59.6544810  53.0566250
  16.7204300  59.9369610  53.3402170  15.3599770  60.4680680  52.9415060
  23.0144260  61.0418020  57.1774530  23.4707040  61.8523270  57.4034720
  22.6632470  60.7241160  58.0093020  25.3176870  66.5524360  64.4066830
  25.9619090  66.7583740  65.0840250  25.6806310  65.7912760  63.9537680
  18.9156040  51.3855670  57.6497050  18.7870670  51.3773570  58.5981970
  18.0918060  51.7238760  57.2988060  26.5908950  64.5556710  63.1244280
  27.2331180  63.8549870  63.2376450  27.1158300  65.3355150  62.9441170
  30.4364670  64.8405330  52.8483420  30.2102250  64.1235770  53.4408060
  30.0460870  64.5917770  52.0105170  28.3646570  65.3551610  66.3280340
  28.7002810  65.9418300  67.0058260  27.4446910  65.2244320  66.5578130
  16.2180700  68.8672190  53.6227880  16.5778340  69.4661530  52.9685150
  16.0773040  69.4132080  54.3962910  15.9149970  53.1446790  67.1103750
  15.2008490  53.3443710  67.7156360  16.3345010  52.3686360  67.4818550
  30.0180920  62.7577270  54.5097580  29.7302620  63.2189960  55.2975460
  30.8133090  62.2975040  54.7781800  16.2022560  67.1327050  68.0970280
  16.3113680  66.1921790  67.9565670  15.5503120  67.3981800  67.4484010
  24.1935150  65.4042940  69.4968400  23.8732020  64.6852180  70.0414090
  23.5193510  66.0798010  69.5704460  22.2349320  66.2503390  54.4401550
  22.2259420  66.9833080  53.8246060  21.3147680  66.0034970  54.5328510
  17.8355960  61.4718280  55.1848310  17.2283910  62.2117180  55.1943610
  18.3105310  61.5617640  54.3586510  27.4088750  55.6369100  64.8605200
  27.7769570  54.8164310  65.1884770  26.5486950  55.6970990  65.2760850
  25.2208920  66.3131630  53.1026740  25.3220900  66.1095620  52.1728720
  24.3210660  66.0589910  53.3074520  22.7434810  56.8711990  57.0850640
  22.0350960  57.3398330  57.5264250  23.0279290  56.2134000  57.7195830
  24.3690740  58.2908690  65.0843170  24.8675990  58.7654510  65.7495020
  24.5113690  57.3672210  65.2913200  26.7750240  53.5962650  58.5246430
  26.6518020  53.6148780  57.5755940  27.7234800  53.6441590  58.6444830
  23.8627030  68.8317950  57.7974410  24.1168530  68.7939340  56.8753780
  22.9139510  68.7051280  57.7902660  20.9469830  55.1797070  54.4601350
  21.7960360  55.6167220  54.3941540  20.5801100  55.4917330  55.2873410
  31.5757600  54.5076650  65.9271560  31.0731200  55.2482050  66.2665370
  32.3914260  54.8960650  65.6108350  29.8679610  59.7509830  59.3732920
  28.9269750  59.7660060  59.5480610  30.1823680  58.9645790  59.8193220
  19.8461250  61.4329430  52.9336880  20.6124520  61.3210790  53.4962310
  19.9235940  60.7367400  52.2813650  18.5408010  58.8654500  53.6169770
  18.6211600  57.9182010  53.7287170  19.4327760  59.1961380  53.7230430
  31.8705190  66.9218680  61.0487180  31.9952610  67.7449850  61.5210990
  32.7370750  66.7109410  60.7011330  19.3422720  69.0149890  60.7204310
  20.0785200  68.4665350  60.9912880  19.7263640  69.8805900  60.5810300
  16.2268200  65.0823460  56.5945820  15.3007980  65.3244600  56.5851230
  16.6924630  65.9097720  56.4730570  18.3481000  68.1995960  69.9089890
  19.1493730  68.5208010  70.3225290  17.8332820  67.8391540  70.6309800
  22.4525030  68.1880200  52.5429880  23.2453640  68.4769030  52.0911670
  21.9329380  67.7572370  51.8642360  27.1845630  64.3075830  69.8565300
  26.5783790  64.3307430  69.1161050  26.8799740  63.5758870  70.3932550
  28.6146000  68.0356120  68.4674710  29.5667750  67.9514140  68.4174950
  28.4674220  68.6997830  69.1408500  31.5055200  67.4150330  53.9666620
  31.2196710  67.0015470  53.1520800  31.3074750  68.3438040  53.8467140
  16.0678810  60.6869420  68.8525940  16.5717830  60.1076700  69.4242170
  15.3286230  60.9709650  69.3902310  22.9702430  63.4083610  52.4072230
  22.8653070  62.7935960  53.1333610  22.8026650  62.8849500  51.6235240
  23.1216750  62.0940410  68.3861460  22.3562420  62.6625410  68.3016130
  23.3032710  61.8016620  67.4929690  26.2105160  62.4703640  53.0114220
  25.6615260  62.9172940  53.6556960  26.8324420  61.9652890  53.5351890
  30.2640100  63.8245740  68.9436480  31.0049570  64.1621500  68.4403940
  29.5012780  63.9937800  68.3906250  18.1001890  58.8299010  69.7476010
  18.1407230  58.5312880  70.6561240  18.9547390  59.2306620  69.5883530
  21.8780280  61.4294560  54.9079520  22.2996700  61.2634430  55.7510910
  22.0031120  60.6194790  54.4134660  20.0407700  57.4091110  67.7150500
  19.5104160  56.9182060  67.0873840  20.7095770  57.8375310  67.1808430
  24.3907920  60.4532170  52.1556620  24.9113580  59.7381190  51.7897770
  25.0376320  61.0918040  52.4557130  28.9385760  61.8760570  67.4791690
  29.3526780  62.0305650  68.3282110  28.0036760  62.0015790  67.6417470
  29.4107930  59.2156730  69.4830840  29.9928700  58.4609050  69.3951320
  29.5869700  59.7464170  68.7062320  20.5280000  54.3753480  67.7947790
  20.4336870  53.7574230  67.0698660  19.9477390  55.1019770  67.5677700
  23.2941440  52.9326720  64.8275180  22.8458740  52.9550980  63.9820730
  22.6606640  52.5345740  65.4245480  23.7000990  61.8281050  65.4487620
  24.1189100  62.6713780  65.2763860  22.7809620  61.9653090  65.2194400
  26.0364890  59.5597230  66.8325460  26.1561100  58.9638370  67.5720300
  26.8958890  59.5966920  66.4126760  28.3752790  60.1134420  65.4087970
  27.8488010  60.6377040  64.8053110  28.7184130  60.7461810  66.0397700
  20.7739180  57.5027790  51.8537680  20.5728240  56.6395150  52.2151020
  20.6031230  57.4161150  50.9159280  21.5508410  68.1334060  66.5645350
  21.0129500  68.8580120  66.2454050  21.8042370  67.6564400  65.7742690
  22.8033660  56.1018580  68.0901280  23.3933350  55.7934430  68.7779100
  21.9853900  55.6298330  68.2461180  27.6227090  55.7184390  68.3234300
  26.9342610  55.0565930  68.2584290  28.3433110  55.2722660  68.7682760
  28.2527490  52.3136020  54.3824560  28.5329780  51.4703920  54.7383980
  27.4793220  52.5459130  54.8963310  19.5721980  54.6028410  51.8415560
  19.8747880  54.6095840  50.9334710  20.3116570  54.2526270  52.3383220
  24.4070620  69.3685270  66.8232000  24.3329320  70.2720410  67.1304370
  23.5049460  69.0497170  66.7954070  22.7906910  53.5463030  52.8271760
  22.4428910  52.8687020  52.2474210  22.9919680  53.0852540  53.6415150
  24.9555950  68.5343780  54.4458360  25.8506740  68.8728750  54.4677120
  24.9873580  67.8123190  53.8182640  18.5952110  63.9070830  52.6745360
  19.0326980  64.4500500  53.3302940  19.0799840  63.0817780  52.6841700
  15.8097910  66.6959860  60.1265620  16.1400920  65.8280920  59.8944260
  16.2388910  66.9018380  60.9570580  20.4059830  65.0268870  57.7867590
  20.1055370  64.9033840  58.6871500  20.2997320  64.1677460  57.3783320
  16.2988120  67.5630450  62.8647250  15.8619110  67.7431250  63.6971400
  16.8665800  68.3205070  62.7228970  31.9350300  67.0647450  67.1524560
  31.3352290  67.1240010  66.4088480  32.0644200  66.1252430  67.2821410
  33.1751750  64.8065270  52.4894270  32.3444710  64.8741920  52.9601500
  33.3523580  65.6969390  52.1861130  32.6308210  61.5512750  54.9928470
  33.3927120  62.1209400  55.0988160  32.6462580  60.9839950  55.7636780
  16.1312550  60.0750680  59.2236130  15.4761390  59.8062320  58.5795830
  16.9690500  59.9655160  58.7738110  33.6368180  62.4062850  59.8370400
  34.0077010  61.6230170  59.4306370  34.2770110  63.0951950  59.6587700
  30.6201940  63.7899430  65.2500720  29.8061780  64.2196590  65.5126510
  31.0276140  64.4017840  64.6369770  29.0802990  54.8691970  53.4454620
  29.4987870  54.6822950  52.6051280  28.7739050  54.0171020  53.7557550
  32.5792720  59.7816110  57.1430420  32.2036320  59.0144040  56.7111710
  31.8495840  60.1638810  57.6305350  17.1688480  60.4603250  63.7639470
  17.5361520  60.3730650  64.6435490  16.5999300  59.6969800  63.6646330
  31.9692340  58.9287630  66.7769940  31.7378430  58.7000380  65.8767890
  32.2296890  59.8487180  66.7314830  16.7204480  57.3712340  67.6697890
  15.8260530  57.3379100  68.0091600  17.2602030  57.5699130  68.4349140
  30.4080410  54.1544060  69.5549640  31.2850590  54.1627460  69.9383640
  30.4201250  53.4174900  68.9441990  15.3450630  57.2849610  55.1661460
  14.4414710  57.5479810  54.9913120  15.8291250  57.5560780  54.3861420
  32.0333400  58.0913470  63.9657210  31.0836110  58.0577010  64.0802200
  32.2146410  59.0013580  63.7306980  17.8877840  56.3415150  53.0755840
  18.5969540  55.9198370  52.5903120  17.1717780  56.4090380  52.4439190
  17.5352000  52.3954480  52.1158490  18.2580130  52.9363420  52.4339710
  17.8076520  52.1217900  51.2400030  17.2244190  51.6460670  62.0181110
  17.8720380  51.0958050  61.5776270  17.6446030  51.9003820  62.8396920
  31.1196530  51.8402030  65.3750750  31.7568750  52.4536170  65.7409940
  31.2671420  51.8762690  64.4299980  30.6777990  68.5418030  58.7768990
  31.2737060  68.2202600  58.1003410  30.9356140  68.0689850  59.5682260
  16.9776190  51.8016340  64.7606430  16.6291010  52.2580160  65.5264610
  16.6463890  50.9073470  64.8428860  18.5840560  64.9735940  68.9259620
  18.5410190  64.6028850  69.8074080  18.7151570  65.9113510  69.0661440
  22.2846590  66.5295530  64.5269340  22.0437950  66.7970090  63.6399860
  23.2249230  66.7001260  64.5820200  24.4901010  52.9928220  68.2825850
  24.4289900  53.5850050  69.0321260  25.4301390  52.8854180  68.1376110
  27.1275570  52.6498280  67.9218140  27.7415980  52.9677570  67.2599220
  27.6725130  52.1646870  68.5414000  33.5450750  68.5489910  65.3279980
  33.0509030  68.9458780  64.6107110  32.9364040  67.9239120  65.7217260
  17.6496830  51.3292540  68.0357200  18.1979820  51.1480590  67.2723310
  17.7152140  50.5386650  68.5713510  18.4228590  67.9198190  66.0457400
  17.8288910  67.7882890  66.7847440  18.4152430  67.0836330  65.5799500
  27.8683610  51.2130420  64.2487430  26.9943450  51.5465530  64.0460360
  27.7594360  50.7403600  65.0739300  28.7755590  53.4201290  65.6329150
  28.4468950  52.6053050  65.2530880  29.7237890  53.3771100  65.5094840
  31.2290200  69.1913330  62.6066720  30.7693170  69.9429140  62.2324740
  30.6002660  68.4719800  62.5481520  18.0540820  65.2856570  64.9965440
  17.3274880  64.6661860  64.9291390  18.1149970  65.6797180  64.1263520
  21.6585920  67.5001570  61.7814850  22.1750940  66.8888930  61.2563110
  22.3083300  68.0030350  62.2725860  24.3981420  68.3910060  62.6083830
  24.6859230  68.1364360  61.7316840  24.9104640  67.8387420  63.1989400
  25.6158430  52.1300260  63.1880340  24.8330220  52.6045760  63.4677100
  25.3221360  51.2255090  63.0793520  30.1679500  52.8323360  61.2329430
  30.6087590  52.7768460  60.3851030  29.8987090  53.7481370  61.3039610
  16.3370820  68.6030960  58.2062200  16.1692860  67.9701640  58.9044090
  15.4705330  68.8090360  57.8556390  16.9598840  52.4347740  55.7094060
  17.7178200  52.5476620  55.1358090  16.4976010  53.2716940  55.6637490
  23.5012650  54.5487010  58.6996370  22.6887160  54.1743900  58.3592250
  24.0054290  53.7932090  59.0017560  28.0037630  51.2129460  59.9379440
  28.6067000  51.7849670  60.4127960  27.2630620  51.7768900  59.7153340
  17.9433520  67.2964190  55.6512340  17.4181140  67.6772220  54.9474300
  17.8678100  67.9214960  56.3722050  19.3323990  52.9611790  54.2496030
  19.8616750  52.1741590  54.1203980  19.9652310  53.6402980  54.4831560
  21.5261830  52.6986930  57.3041420  20.8964570  51.9974240  57.4711550
  20.9866970  53.4591060  57.0874580  24.4653780  69.3126160  69.9752030
  25.3921090  69.0770430  70.0187990  24.4504210  70.1398160  69.4938060
  32.6998840  68.8551730  56.9726280  32.8751030  68.1689470  56.3287200
  32.0020410  69.3798780  56.5802950  21.6517390  51.9770910  69.7393910
  21.3701660  52.4804510  68.9754730  22.0337090  51.1792660  69.3736040
  20.5426490  69.2446570  54.5261590  21.2745310  68.9605850  53.9785480
  20.8020160  69.0059850  55.4160970  19.7041280  65.3611300  54.5307920
  19.0750160  65.8296400  55.0793750  19.8189110  64.5160520  54.9654110
  28.2532850  51.3924490  70.3174380  28.1398300  51.7119100  71.2125900
  29.0702590  51.7937000  70.0211660  31.0331340  68.5396020  69.7993070
  31.8256660  68.0445250  69.5919030  31.3264490  69.2186160  70.4068680
  27.1591000  59.4116960  40.6809120  27.0785050  58.4971570  40.4100830
  26.7455420  59.9084030  39.9748830  25.2909040  61.1895980  42.5618390
  24.5151140  60.7096420  42.8516960  25.9421970  60.5101630  42.3874550
  19.3074870  61.5015790  43.4394150  18.4759750  61.2464500  43.8390660
  19.9155850  61.5726560  44.1752070  19.2876130  65.5355880  43.6352170
  19.5904170  64.6453620  43.4562390  20.0319720  66.0926100  43.4074420
  17.7166820  56.4617680  37.2236540  16.8283520  56.8033650  37.1216420
  18.0008010  56.2618000  36.3317370  15.6799830  59.0623330  43.1076240
  16.2515940  58.2945530  43.1079880  15.6801370  59.3612090  42.1982850
  25.5379780  67.8814180  40.9621510  24.9191220  68.3371680  40.3915950
  26.3931560  68.0365640  40.5611210  24.7318030  63.8653170  42.5688550
  24.6626310  62.9243110  42.4077680  25.4937890  63.9554580  43.1411120
  16.9224700  54.4707690  44.8945170  16.7427540  53.5733440  45.1747930
  16.5204780  55.0179560  45.5692120  19.8928210  55.0449180  38.2574920
  19.9994960  55.9452910  38.5643680  18.9820570  54.9967150  37.9669570
  17.5411370  56.9668190  43.5027510  18.2221480  57.2306560  44.1214910
  17.2259420  56.1269060  43.8365520  21.7335940  58.0135550  42.5900100
  22.2414160  58.5116520  43.2305120  22.2649180  57.2370750  42.4139460
  20.0172040  52.6534110  46.8563520  20.0190480  53.1706500  46.0509420
  19.1876350  52.1764290  46.8333450  26.4043130  62.7653420  38.3553420
  25.7860400  63.2302870  37.7916140  26.9166380  63.4580900  38.7722930
  21.2674890  62.2929290  45.0337020  20.9344270  62.9198210  45.6758090
  21.4441570  62.8191170  44.2538690  19.6987370  54.3644070  44.8633970
  20.0404180  55.2086120  44.5687840  18.7603180  54.5127810  44.9799310
  20.4793990  64.2610090  46.8486200  21.0967990  64.9361170  46.5670650
  19.6187110  64.6698070  46.7573700  15.7726330  63.4509950  35.7293050
  15.3954310  63.9397050  34.9977950  16.0299400  64.1235230  36.3599580
  25.7696020  59.9175170  37.9238680  24.8425300  59.8512550  38.1527150
  25.9220840  60.8555300  37.8093920  21.3752660  60.4439910  40.7058410
  20.9709660  59.7317160  40.2104310  21.4615780  60.0993150  41.5946450
  21.8434360  64.1307470  42.8697620  21.5462650  63.5252940  42.1905400
  22.7934180  64.1684780  42.7586980  20.0881280  57.2183120  44.4857450
  20.6395870  57.3278460  43.7110700  20.6024790  57.5920720  45.2012680
  29.9319970  67.7039340  46.5320720  29.4550530  68.5111530  46.3393330
  29.2481760  67.0517670  46.6846930  20.9352790  63.8689160  49.5205420
  20.0381320  64.0929130  49.7678820  20.9605660  63.9924100  48.5716820
  19.7624010  60.7402480  48.0962790  19.6231780  61.6125280  48.4650190
  18.8805370  60.3975290  47.9510730  26.0853390  65.6578350  39.4027920
  26.5249300  66.4002680  38.9883310  26.0240280  65.9004920  40.3266880
  21.5604360  66.6824180  50.3047940  21.5319790  67.0867130  49.4376370
  21.3969330  65.7534540  50.1419540  18.0757290  59.3384890  38.2065060
  17.9554890  60.0646980  37.5946330  17.7658180  58.5687800  37.7292970
  33.5119180  67.4651280  51.6012110  33.9878900  67.9434170  52.2801190
  34.1326340  67.3968770  50.8757610  15.7142660  62.5100030  44.0133700
  15.7923080  62.6448800  43.0689420  16.3284340  61.8015920  44.2061820
  16.9590290  64.2100220  40.4239880  16.5518370  64.3514810  39.5693480
  17.8503300  63.9260380  40.2211090  32.9152430  64.6564130  48.7612120
  33.0415490  64.4176010  47.8429300  32.9573810  63.8248670  49.2334200
  26.7769170  68.3592130  47.3306930  27.2913840  68.2700140  48.1329360
  25.9338250  68.7051830  47.6234840  28.7523570  68.6447470  36.7590930
  28.5924710  68.3550410  37.6572760  28.5870280  67.8687600  36.2236160
  21.2311950  68.4246000  38.5362550  21.0554430  67.5081540  38.3230350
  20.3767690  68.7833290  38.7760350  15.7702180  63.5514200  46.5528160
  15.9333220  63.0819560  45.7347530  16.2354630  63.0437760  47.2177000
  20.5420950  52.6819960  41.5888730  20.0989100  53.4629500  41.2573250
  21.1005940  53.0049850  42.2959670  20.3335170  57.8053530  39.3169980
  20.1076090  57.5890700  40.2216600  19.5527700  58.2381990  38.9715950
  22.7734380  58.7039110  49.9830250  22.6777980  57.7633840  49.8330650
  23.6166360  58.9254180  49.5878320  17.9044920  55.1152780  48.1364030
  17.5108310  55.9627990  48.3436810  17.2163320  54.4779150  48.3272670
  15.2061970  53.0381240  42.1694110  14.9175020  53.6084100  42.8819090
  15.9507730  52.5585690  42.5325340  15.3932200  56.9801360  33.3796830
  15.3106870  57.9232120  33.5211820  15.0415260  56.8376270  32.5009180
  19.0432710  55.5966880  41.4061390  18.7032760  56.0742110  42.1628440
  18.2810030  55.1432000  41.0462490  17.3441160  62.9265630  48.7123970
  16.9595950  62.2859300  49.3106930  17.6553350  63.6301750  49.2818700
  23.4938300  59.7742170  44.1932590  23.8608430  59.3000740  44.9393930
  23.3043360  60.6483740  44.5340930  16.3578790  54.5185860  40.3226060
  16.0725710  54.1541530  41.1604680  16.2957650  53.7866320  39.7089200
  21.2837670  58.8150810  46.5116800  20.9794740  59.6942790  46.7367160
  22.2384130  58.8750600  46.5474240  19.8119460  63.0211800  37.1083650
  19.0381720  62.4809420  36.9482370  20.5414090  62.5018410  36.7701410
  19.8556860  62.6892180  40.7462460  20.3735530  61.8860440  40.6919350
  19.4040880  62.6271320  41.5879290  24.7426360  63.9558460  36.0189760
  25.0842060  64.7000690  35.5233080  23.9139070  64.2689580  36.3814590
  17.3401400  59.6553550  47.6588160  16.9816340  60.3207400  48.2461500
  17.0455960  58.8237100  48.0300780  20.5414520  60.1137790  50.5427710
  20.2414660  60.2594970  49.6455530  21.3125760  59.5543080  50.4501100
  25.8842970  64.9106790  48.5382840  25.8987510  63.9787750  48.3201750
  25.1768070  64.9966550  49.1772610  27.6253770  63.2774300  41.3835270
  27.9777590  62.6802430  40.7236640  26.7416100  62.9518530  41.5543520
  23.7117050  64.0371990  38.7905680  24.3988180  64.5841200  39.1713270
  22.9249470  64.5812720  38.8255290  15.8509450  59.6544810  34.2822760
  16.7204300  59.9369610  34.5658680  15.3599770  60.4680680  34.1671570
  23.0144260  61.0418020  38.4031040  23.4707040  61.8523270  38.6291230
  22.6632470  60.7241160  39.2349530  25.3176870  66.5524360  45.6323340
  25.9619090  66.7583740  46.3096760  25.6806310  65.7912760  45.1794190
  18.9156040  51.3855670  38.8753560  18.7870670  51.3773570  39.8238480
  18.0918060  51.7238760  38.5244570  26.5908950  64.5556710  44.3500790
  27.2331180  63.8549870  44.4632960  27.1158300  65.3355150  44.1697680
  28.3646570  65.3551610  47.5536850  28.7002810  65.9418300  48.2314770
  27.4446910  65.2244320  47.7834640  16.2180700  68.8672190  34.8484390
  16.5778340  69.4661530  34.1941660  16.0773040  69.4132080  35.6219420
  15.9149970  53.1446790  48.3360260  15.2008490  53.3443710  48.9412870
  16.3345010  52.3686360  48.7075060  16.2022560  67.1327050  49.3226790
  16.3113680  66.1921790  49.1822180  15.5503120  67.3981800  48.6740520
  24.1935150  65.4042940  50.7224910  23.8732020  64.6852180  51.2670600
  23.5193510  66.0798010  50.7960970  22.2349320  66.2503390  35.6658060
  22.2259420  66.9833080  35.0502570  21.3147680  66.0034970  35.7585020
  17.8355960  61.4718280  36.4104820  17.2283910  62.2117180  36.4200120
  18.3105310  61.5617640  35.5843020  25.2208920  66.3131630  34.3283250
  25.3220900  66.1095620  33.3985230  24.3210660  66.0589910  34.5331030
  22.7434810  56.8711990  38.3107150  22.0350960  57.3398330  38.7520760
  23.0279290  56.2134000  38.9452340  23.8627030  68.8317950  39.0230920
  24.1168530  68.7939340  38.1010290  22.9139510  68.7051280  39.0159170
  20.9469830  55.1797070  35.6857860  21.7960360  55.6167220  35.6198050
  20.5801100  55.4917330  36.5129920  19.8461250  61.4329430  34.1593390
  20.6124520  61.3210790  34.7218820  19.9235940  60.7367400  33.5070160
  18.5408010  58.8654500  34.8426280  18.6211600  57.9182010  34.9543680
  19.4327760  59.1961380  34.9486940  19.3422720  69.0149890  41.9460820
  20.0785200  68.4665350  42.2169390  19.7263640  69.8805900  41.8066810
  16.2268200  65.0823460  37.8202330  15.3007980  65.3244600  37.8107740
  16.6924630  65.9097720  37.6987080  18.3481000  68.1995960  51.1346400
  19.1493730  68.5208010  51.5481800  17.8332820  67.8391540  51.8566310
  22.4525030  68.1880200  33.7686390  23.2453640  68.4769030  33.3168180
  21.9329380  67.7572370  33.0898870  27.1845630  64.3075830  51.0821810
  26.5783790  64.3307430  50.3417560  26.8799740  63.5758870  51.6189060
  28.6146000  68.0356120  49.6931220  29.5667750  67.9514140  49.6431460
  28.4674220  68.6997830  50.3665010  16.0678810  60.6869420  50.0782450
  16.5717830  60.1076700  50.6498680  15.3286230  60.9709650  50.6158820
  22.9702430  63.4083610  33.6328740  22.8653070  62.7935960  34.3590120
  22.8026650  62.8849500  32.8491750  23.1216750  62.0940410  49.6117970
  22.3562420  62.6625410  49.5272640  23.3032710  61.8016620  48.7186200
  26.2105160  62.4703640  34.2370730  25.6615260  62.9172940  34.8813470
  26.8324420  61.9652890  34.7608400  30.2640100  63.8245740  50.1692990
  31.0049570  64.1621500  49.6660450  29.5012780  63.9937800  49.6162760
  18.1001890  58.8299010  50.9732520  18.1407230  58.5312880  51.8817750
  18.9547390  59.2306620  50.8140040  21.8780280  61.4294560  36.1336030
  22.2996700  61.2634430  36.9767420  22.0031120  60.6194790  35.6391170
  20.0407700  57.4091110  48.9407010  19.5104160  56.9182060  48.3130350
  20.7095770  57.8375310  48.4064940  23.7000990  61.8281050  46.6744130
  24.1189100  62.6713780  46.5020370  22.7809620  61.9653090  46.4450910
  20.7739180  57.5027790  33.0794190  20.5728240  56.6395150  33.4407530
  20.6031230  57.4161150  32.1415790  21.5508410  68.1334060  47.7901860
  21.0129500  68.8580120  47.4710560  21.8042370  67.6564400  46.9999200
  19.5721980  54.6028410  33.0672070  19.8747880  54.6095840  32.1591220
  20.3116570  54.2526270  33.5639730  24.4070620  69.3685270  48.0488510
  24.3329320  70.2720410  48.3560880  23.5049460  69.0497170  48.0210580
  24.9555950  68.5343780  35.6714870  25.8506740  68.8728750  35.6933630
  24.9873580  67.8123190  35.0439150  18.5952110  63.9070830  33.9001870
  19.0326980  64.4500500  34.5559450  19.0799840  63.0817780  33.9098210
  15.8097910  66.6959860  41.3522130  16.1400920  65.8280920  41.1200770
  16.2388910  66.9018380  42.1827090  20.4059830  65.0268870  39.0124100
  20.1055370  64.9033840  39.9128010  20.2997320  64.1677460  38.6039830
  16.2988120  67.5630450  44.0903760  15.8619110  67.7431250  44.9227910
  16.8665800  68.3205070  43.9485480  31.9350300  67.0647450  48.3781070
  31.3352290  67.1240010  47.6344990  32.0644200  66.1252430  48.5077920
  16.1312550  60.0750680  40.4492640  15.4761390  59.8062320  39.8052340
  16.9690500  59.9655160  39.9994620  17.1688480  60.4603250  44.9895980
  17.5361520  60.3730650  45.8692000  16.5999300  59.6969800  44.8902840
  16.7204480  57.3712340  48.8954400  15.8260530  57.3379100  49.2348110
  17.2602030  57.5699130  49.6605650  15.3450630  57.2849610  36.3917970
  14.4414710  57.5479810  36.2169630  15.8291250  57.5560780  35.6117930
  17.8877840  56.3415150  34.3012350  18.5969540  55.9198370  33.8159630
  17.1717780  56.4090380  33.6695700  17.5352000  52.3954480  33.3415000
  18.2580130  52.9363420  33.6596220  17.8076520  52.1217900  32.4656540
  17.2244190  51.6460670  43.2437620  17.8720380  51.0958050  42.8032780
  17.6446030  51.9003820  44.0653430  16.9776190  51.8016340  45.9862940
  16.6291010  52.2580160  46.7521120  16.6463890  50.9073470  46.0685370
  18.5840560  64.9735940  50.1516130  18.5410190  64.6028850  51.0330590
  18.7151570  65.9113510  50.2917950  22.2846590  66.5295530  45.7525850
  22.0437950  66.7970090  44.8656370  23.2249230  66.7001260  45.8076710
  33.5450750  68.5489910  46.5536490  33.0509030  68.9458780  45.8363620
  32.9364040  67.9239120  46.9473770  17.6496830  51.3292540  49.2613710
  18.1979820  51.1480590  48.4979820  17.7152140  50.5386650  49.7970020
  18.4228590  67.9198190  47.2713910  17.8288910  67.7882890  48.0103950
  18.4152430  67.0836330  46.8056010  31.2290200  69.1913330  43.8323230
  30.7693170  69.9429140  43.4581250  30.6002660  68.4719800  43.7738030
  18.0540820  65.2856570  46.2221950  17.3274880  64.6661860  46.1547900
  18.1149970  65.6797180  45.3520030  21.6585920  67.5001570  43.0071360
  22.1750940  66.8888930  42.4819620  22.3083300  68.0030350  43.4982370
  24.3981420  68.3910060  43.8340340  24.6859230  68.1364360  42.9573350
  24.9104640  67.8387420  44.4245910  16.3370820  68.6030960  39.4318710
  16.1692860  67.9701640  40.1300600  15.4705330  68.8090360  39.0812900
  16.9598840  52.4347740  36.9350570  17.7178200  52.5476620  36.3614600
  16.4976010  53.2716940  36.8894000  17.9433520  67.2964190  36.8768850
  17.4181140  67.6772220  36.1730810  17.8678100  67.9214960  37.5978560
  19.3323990  52.9611790  35.4752540  19.8616750  52.1741590  35.3460490
  19.9652310  53.6402980  35.7088070  24.4653780  69.3126160  51.2008540
  25.3921090  69.0770430  51.2444500  24.4504210  70.1398160  50.7194570
  32.6998840  68.8551730  38.1982790  32.8751030  68.1689470  37.5543710
  32.0020410  69.3798780  37.8059460  20.5426490  69.2446570  35.7518100
  21.2745310  68.9605850  35.2041990  20.8020160  69.0059850  36.6417480
  19.7041280  65.3611300  35.7564430  19.0750160  65.8296400  36.3050260
  19.8189110  64.5160520  36.1910620  31.0331340  68.5396020  51.0249580
  31.8256660  68.0445250  50.8175540  31.3264490  69.2186160  51.6325190
  27.1591000  59.4116960  21.9065630  27.0785050  58.4971570  21.6357340
  26.7455420  59.9084030  21.2005340  25.2909040  61.1895980  23.7874900
  24.5151140  60.7096420  24.0773470  25.9421970  60.5101630  23.6131060
  19.3074870  61.5015790  24.6650660  18.4759750  61.2464500  25.0647170
  19.9155850  61.5726560  25.4008580  29.3116470  65.5956170  22.5674030
  28.8498000  64.8243410  22.8961200  30.1242020  65.6222240  23.0726480
  19.2876130  65.5355880  24.8608680  19.5904170  64.6453620  24.6818900
  20.0319720  66.0926100  24.6330930  17.7166820  56.4617680  18.4493050
  16.8283520  56.8033650  18.3472930  18.0008010  56.2618000  17.5573880
  15.6799830  59.0623330  24.3332750  16.2515940  58.2945530  24.3336390
  15.6801370  59.3612090  23.4239360  25.5379780  67.8814180  22.1878020
  24.9191220  68.3371680  21.6172460  26.3931560  68.0365640  21.7867720
  24.7318030  63.8653170  23.7945060  24.6626310  62.9243110  23.6334190
  25.4937890  63.9554580  24.3667630  16.9224700  54.4707690  26.1201680
  16.7427540  53.5733440  26.4004440  16.5204780  55.0179560  26.7948630
  25.7623200  56.6723550  24.0213990  26.1388020  55.7995430  23.9087660
  25.6642710  57.0082250  23.1304430  19.8928210  55.0449180  19.4831430
  19.9994960  55.9452910  19.7900190  18.9820570  54.9967150  19.1926080
  29.5447320  54.1673990  20.9542330  30.3656940  53.6770560  20.9967810
  29.5781400  54.7571650  21.7074170  17.5411370  56.9668190  24.7284020
  18.2221480  57.2306560  25.3471420  17.2259420  56.1269060  25.0622030
  21.7335940  58.0135550  23.8156610  22.2414160  58.5116520  24.4561630
  22.2649180  57.2370750  23.6395970  20.0172040  52.6534110  28.0820030
  20.0190480  53.1706500  27.2765930  19.1876350  52.1764290  28.0589960
  26.4043130  62.7653420  19.5809930  25.7860400  63.2302870  19.0172650
  26.9166380  63.4580900  19.9979440  21.2674890  62.2929290  26.2593530
  20.9344270  62.9198210  26.9014600  21.4441570  62.8191170  25.4795200
  19.6987370  54.3644070  26.0890480  20.0404180  55.2086120  25.7944350
  18.7603180  54.5127810  26.2055820  20.4793990  64.2610090  28.0742710
  21.0967990  64.9361170  27.7927160  19.6187110  64.6698070  27.9830210
  15.7726330  63.4509950  16.9549560  15.3954310  63.9397050  16.2234460
  16.0299400  64.1235230  17.5856090  31.3971580  65.7249500  25.9897350
  30.7135100  66.3948610  25.9814020  31.9365870  65.9230150  25.2242210
  23.3815260  51.8526340  22.4135070  23.6890240  51.2973230  21.6970570
  22.4515960  51.9870800  22.2308060  28.9330320  67.5693630  24.7042530
  28.9457480  67.1655920  23.8364790  28.3805540  68.3440920  24.6003960
  30.2275740  64.2909850  19.7932700  30.1172070  63.3484180  19.9182120
  30.2243990  64.6525490  20.6795460  25.7696020  59.9175170  19.1495190
  24.8425300  59.8512550  19.3783660  25.9220840  60.8555300  19.0350430
  25.7565100  56.1892170  16.1462350  24.8168770  56.3506130  16.2314810
  26.0748360  56.9077850  15.5998340  29.7993310  61.4795470  19.6530440
  29.1805730  61.1415020  19.0056740  29.7817760  60.8355230  20.3609630
  21.3752660  60.4439910  21.9314920  20.9709660  59.7317160  21.4360820
  21.4615780  60.0993150  22.8202960  21.8434360  64.1307470  24.0954130
  21.5462650  63.5252940  23.4161910  22.7934180  64.1684780  23.9843490
  20.0881280  57.2183120  25.7113960  20.6395870  57.3278460  24.9367210
  20.6024790  57.5920720  26.4269190  29.9319970  67.7039340  27.7577230
  29.4550530  68.5111530  27.5649840  29.2481760  67.0517670  27.9103440
  20.9352790  63.8689160  30.7461930  20.0381320  64.0929130  30.9935330
  20.9605660  63.9924100  29.7973330  27.9758010  60.7182280  16.6603190
  28.4151290  59.8804710  16.5141010  28.6886430  61.3511680  16.7467330
  19.7624010  60.7402480  29.3219300  19.6231780  61.6125280  29.6906700
  18.8805370  60.3975290  29.1767240  26.0853390  65.6578350  20.6284430
  26.5249300  66.4002680  20.2139820  26.0240280  65.9004920  21.5523390
  21.5604360  66.6824180  31.5304450  21.5319790  67.0867130  30.6632880
  21.3969330  65.7534540  31.3676050  31.5575150  51.9725090  14.9744230
  31.2447810  52.0651920  15.8743300  32.3187620  52.5506120  14.9241660
  18.0757290  59.3384890  19.4321570  17.9554890  60.0646980  18.8202840
  17.7658180  58.5687800  18.9549480  33.5119180  67.4651280  32.8268620
  33.9878900  67.9434170  33.5057700  34.1326340  67.3968770  32.1014120
  15.7142660  62.5100030  25.2390210  15.7923080  62.6448800  24.2945930
  16.3284340  61.8015920  25.4318330  16.9590290  64.2100220  21.6496390
  16.5518370  64.3514810  20.7949990  17.8503300  63.9260380  21.4467600
  26.7769170  68.3592130  28.5563440  27.2913840  68.2700140  29.3585870
  25.9338250  68.7051830  28.8491350  28.7523570  68.6447470  17.9847440
  28.5924710  68.3550410  18.8829270  28.5870280  67.8687600  17.4492670
  21.2311950  68.4246000  19.7619060  21.0554430  67.5081540  19.5486860
  20.3767690  68.7833290  20.0016860  28.4549700  66.1535030  16.5445440
  27.7614860  66.1512320  15.8847720  29.1972560  65.7294350  16.1139610
  28.0199630  67.7797740  20.6193930  28.4756580  66.9987120  20.9332550
  28.3592150  68.4904560  21.1635110  15.7702180  63.5514200  27.7784670
  15.9333220  63.0819560  26.9604040  16.2354630  63.0437760  28.4433510
  20.5420950  52.6819960  22.8145240  20.0989100  53.4629500  22.4829760
  21.1005940  53.0049850  23.5216180  23.6579770  52.3030660  17.6951070
  23.0333950  52.2990530  18.4204380  23.5709890  51.4361620  17.2987040
  22.5796850  53.2267290  24.6734840  22.8769180  54.1330120  24.5926860
  23.1282410  52.7386070  24.0594410  20.3335170  57.8053530  20.5426490
  20.1076090  57.5890700  21.4473110  19.5527700  58.2381990  20.1972460
  27.5632930  57.8116900  19.1417140  26.9641820  58.5352700  18.9580760
  28.1112540  57.7493680  18.3593590  22.7734380  58.7039110  31.2086760
  22.6777980  57.7633840  31.0587160  23.6166360  58.9254180  30.8134830
  26.1697800  56.4480440  21.1720420  26.5627370  56.7652640  20.3589110
  26.5314650  55.5692320  21.2864940  17.9044920  55.1152780  29.3620540
  17.5108310  55.9627990  29.5693320  17.2163320  54.4779150  29.5529180
  15.2061970  53.0381240  23.3950620  14.9175020  53.6084100  24.1075600
  15.9507730  52.5585690  23.7581850  15.3932200  56.9801360  14.6053340
  15.3106870  57.9232120  14.7468330  15.0415260  56.8376270  13.7265690
  23.1930330  55.7140390  23.6723690  23.1966390  55.2730340  22.8228230
  24.0881450  56.0357720  23.7795510  19.0432710  55.5966880  22.6317900
  18.7032760  56.0742110  23.3884950  18.2810030  55.1432000  22.2719000
  23.2550480  56.7152470  16.6630450  23.3763300  56.6738950  17.6116270
  22.8698990  57.5776620  16.5077180  22.2671980  59.0253610  16.0613750
  21.6988880  58.5771860  15.4349660  22.9760980  59.3846390  15.5278900
  17.3441160  62.9265630  29.9380480  16.9595950  62.2859300  30.5363440
  17.6553350  63.6301750  30.5075210  23.4938300  59.7742170  25.4189100
  23.8608430  59.3000740  26.1650440  23.3043360  60.6483740  25.7597440
  16.3578790  54.5185860  21.5482570  16.0725710  54.1541530  22.3861190
  16.2957650  53.7866320  20.9345710  21.2837670  58.8150810  27.7373310
  20.9794740  59.6942790  27.9623670  22.2384130  58.8750600  27.7730750
  19.8119460  63.0211800  18.3340160  19.0381720  62.4809420  18.1738880
  20.5414090  62.5018410  17.9957920  26.0317380  53.4115120  18.2695940
  25.2181990  52.9128290  18.1941250  25.8379330  54.2513370  17.8532290
  25.9526240  62.0886220  30.0135550  25.8863550  61.1681890  29.7593140
  25.3231380  62.1861660  30.7280190  28.7465770  57.7834770  16.5658100
  29.6345390  58.0952000  16.3909440  28.7170860  56.9107020  16.1738680
  19.8556860  62.6892180  21.9718970  20.3735530  61.8860440  21.9175860
  19.4040880  62.6271320  22.8135800  24.7426360  63.9558460  17.2446270
  25.0842060  64.7000690  16.7489590  23.9139070  64.2689580  17.6071100
  17.3401400  59.6553550  28.8844670  16.9816340  60.3207400  29.4718010
  17.0455960  58.8237100  29.2557290  20.5414520  60.1137790  31.7684220
  20.2414660  60.2594970  30.8712040  21.3125760  59.5543080  31.6757610
  25.8842970  64.9106790  29.7639350  25.8987510  63.9787750  29.5458260
  25.1768070  64.9966550  30.4029120  31.0180040  59.0946610  16.0337960
  30.9343760  59.5260830  15.1834400  31.7374230  59.5544960  16.4664780
  32.0467290  65.9488870  18.7620090  31.4043450  65.2944490  19.0363810
  31.6597950  66.3543960  17.9860760  27.6253770  63.2774300  22.6091780
  27.9777590  62.6802430  21.9493150  26.7416100  62.9518530  22.7800030
  23.7117050  64.0371990  20.0162190  24.3988180  64.5841200  20.3969780
  22.9249470  64.5812720  20.0511800  15.8509450  59.6544810  15.5079270
  16.7204300  59.9369610  15.7915190  15.3599770  60.4680680  15.3928080
  23.0144260  61.0418020  19.6287550  23.4707040  61.8523270  19.8547740
  22.6632470  60.7241160  20.4606040  25.3176870  66.5524360  26.8579850
  25.9619090  66.7583740  27.5353270  25.6806310  65.7912760  26.4050700
  18.9156040  51.3855670  20.1010070  18.7870670  51.3773570  21.0494990
  18.0918060  51.7238760  19.7501080  26.5908950  64.5556710  25.5757300
  27.2331180  63.8549870  25.6889470  27.1158300  65.3355150  25.3954190
  30.4364670  64.8405330  15.2996440  30.2102250  64.1235770  15.8921080
  30.0460870  64.5917770  14.4618190  28.3646570  65.3551610  28.7793360
  28.7002810  65.9418300  29.4571280  27.4446910  65.2244320  29.0091150
  16.2180700  68.8672190  16.0740900  16.5778340  69.4661530  15.4198170
  16.0773040  69.4132080  16.8475930  15.9149970  53.1446790  29.5616770
  15.2008490  53.3443710  30.1669380  16.3345010  52.3686360  29.9331570
  30.0180920  62.7577270  16.9610600  29.7302620  63.2189960  17.7488480
  30.8133090  62.2975040  17.2294820  16.2022560  67.1327050  30.5483300
  16.3113680  66.1921790  30.4078690  15.5503120  67.3981800  29.8997030
  24.1935150  65.4042940  31.9481420  23.8732020  64.6852180  32.4927110
  23.5193510  66.0798010  32.0217480  22.2349320  66.2503390  16.8914570
  22.2259420  66.9833080  16.2759080  21.3147680  66.0034970  16.9841530
  17.8355960  61.4718280  17.6361330  17.2283910  62.2117180  17.6456630
  18.3105310  61.5617640  16.8099530  30.7750780  54.5926040  18.1205780
  30.1463940  54.6971710  17.4064010  30.2802700  54.8122820  18.9099660
  25.2208920  66.3131630  15.5539760  25.3220900  66.1095620  14.6241740
  24.3210660  66.0589910  15.7587540  22.7434810  56.8711990  19.5363660
  22.0350960  57.3398330  19.9777270  23.0279290  56.2134000  20.1708850
  24.3690740  58.2908690  27.5356190  24.8675990  58.7654510  28.2008040
  24.5113690  57.3672210  27.7426220  26.7750240  53.5962650  20.9759450
  26.6518020  53.6148780  20.0268960  27.7234800  53.6441590  21.0957850
  23.8627030  68.8317950  20.2487430  24.1168530  68.7939340  19.3266800
  22.9139510  68.7051280  20.2415680  20.9469830  55.1797070  16.9114370
  21.7960360  55.6167220  16.8454560  20.5801100  55.4917330  17.7386430
  29.8679610  59.7509830  21.8245940  28.9269750  59.7660060  21.9993630
  30.1823680  58.9645790  22.2706240  19.8461250  61.4329430  15.3849900
  20.6124520  61.3210790  15.9475330  19.9235940  60.7367400  14.7326670
  18.5408010  58.8654500  16.0682790  18.6211600  57.9182010  16.1800190
  19.4327760  59.1961380  16.1743450  31.8705190  66.9218680  23.5000200
  31.9952610  67.7449850  23.9724010  32.7370750  66.7109410  23.1524350
  19.3422720  69.0149890  23.1717330  20.0785200  68.4665350  23.4425900
  19.7263640  69.8805900  23.0323320  16.2268200  65.0823460  19.0458840
  15.3007980  65.3244600  19.0364250  16.6924630  65.9097720  18.9243590
  18.3481000  68.1995960  32.3602910  19.1493730  68.5208010  32.7738310
  17.8332820  67.8391540  33.0822820  22.4525030  68.1880200  14.9942900
  23.2453640  68.4769030  14.5424690  21.9329380  67.7572370  14.3155380
  27.1845630  64.3075830  32.3078320  26.5783790  64.3307430  31.5674070
  26.8799740  63.5758870  32.8445570  28.6146000  68.0356120  30.9187730
  29.5667750  67.9514140  30.8687970  28.4674220  68.6997830  31.5921520
  31.5055200  67.4150330  16.4179640  31.2196710  67.0015470  15.6033820
  31.3074750  68.3438040  16.2980160  16.0678810  60.6869420  31.3038960
  16.5717830  60.1076700  31.8755190  15.3286230  60.9709650  31.8415330
  22.9702430  63.4083610  14.8585250  22.8653070  62.7935960  15.5846630
  22.8026650  62.8849500  14.0748260  23.1216750  62.0940410  30.8374480
  22.3562420  62.6625410  30.7529150  23.3032710  61.8016620  29.9442710
  26.2105160  62.4703640  15.4627240  25.6615260  62.9172940  16.1069980
  26.8324420  61.9652890  15.9864910  30.2640100  63.8245740  31.3949500
  31.0049570  64.1621500  30.8916960  29.5012780  63.9937800  30.8419270
  18.1001890  58.8299010  32.1989030  18.1407230  58.5312880  33.1074260
  18.9547390  59.2306620  32.0396550  21.8780280  61.4294560  17.3592540
  22.2996700  61.2634430  18.2023930  22.0031120  60.6194790  16.8647680
  20.0407700  57.4091110  30.1663520  19.5104160  56.9182060  29.5386860
  20.7095770  57.8375310  29.6321450  24.3907920  60.4532170  14.6069640
  24.9113580  59.7381190  14.2410790  25.0376320  61.0918040  14.9070150
  23.7000990  61.8281050  27.9000640  24.1189100  62.6713780  27.7276880
  22.7809620  61.9653090  27.6707420  26.0364890  59.5597230  29.2838480
  26.1561100  58.9638370  30.0233320  26.8958890  59.5966920  28.8639780
  20.7739180  57.5027790  14.3050700  20.5728240  56.6395150  14.6664040
  20.6031230  57.4161150  13.3672300  21.5508410  68.1334060  29.0158370
  21.0129500  68.8580120  28.6967070  21.8042370  67.6564400  28.2255710
  28.2527490  52.3136020  16.8337580  28.5329780  51.4703920  17.1897000
  27.4793220  52.5459130  17.3476330  19.5721980  54.6028410  14.2928580
  19.8747880  54.6095840  13.3847730  20.3116570  54.2526270  14.7896240
  24.4070620  69.3685270  29.2745020  24.3329320  70.2720410  29.5817390
  23.5049460  69.0497170  29.2467090  22.7906910  53.5463030  15.2784780
  22.4428910  52.8687020  14.6987230  22.9919680  53.0852540  16.0928170
  24.9555950  68.5343780  16.8971380  25.8506740  68.8728750  16.9190140
  24.9873580  67.8123190  16.2695660  18.5952110  63.9070830  15.1258380
  19.0326980  64.4500500  15.7815960  19.0799840  63.0817780  15.1354720
  15.8097910  66.6959860  22.5778640  16.1400920  65.8280920  22.3457280
  16.2388910  66.9018380  23.4083600  20.4059830  65.0268870  20.2380610
  20.1055370  64.9033840  21.1384520  20.2997320  64.1677460  19.8296340
  16.2988120  67.5630450  25.3160270  15.8619110  67.7431250  26.1484420
  16.8665800  68.3205070  25.1741990  31.9350300  67.0647450  29.6037580
  31.3352290  67.1240010  28.8601500  32.0644200  66.1252430  29.7334430
  33.1751750  64.8065270  14.9407290  32.3444710  64.8741920  15.4114520
  33.3523580  65.6969390  14.6374150  32.6308210  61.5512750  17.4441490
  33.3927120  62.1209400  17.5501180  32.6462580  60.9839950  18.2149800
  16.1312550  60.0750680  21.6749150  15.4761390  59.8062320  21.0308850
  16.9690500  59.9655160  21.2251130  33.6368180  62.4062850  22.2883420
  34.0077010  61.6230170  21.8819390  34.2770110  63.0951950  22.1100720
  30.6201940  63.7899430  27.7013740  29.8061780  64.2196590  27.9639530
  31.0276140  64.4017840  27.0882790  32.6827380  61.8447120  14.6014010
  32.9576220  62.7526000  14.4733230  32.4938120  61.7809650  15.5376000
  29.0802990  54.8691970  15.8967640  29.4987870  54.6822950  15.0564300
  28.7739050  54.0171020  16.2070570  32.5792720  59.7816110  19.5943440
  32.2036320  59.0144040  19.1624730  31.8495840  60.1638810  20.0818370
  17.1688480  60.4603250  26.2152490  17.5361520  60.3730650  27.0948510
  16.5999300  59.6969800  26.1159350  16.7204480  57.3712340  30.1210910
  15.8260530  57.3379100  30.4604620  17.2602030  57.5699130  30.8862160
  15.3450630  57.2849610  17.6174480  14.4414710  57.5479810  17.4426140
  15.8291250  57.5560780  16.8374440  17.8877840  56.3415150  15.5268860
  18.5969540  55.9198370  15.0416140  17.1717780  56.4090380  14.8952210
  17.5352000  52.3954480  14.5671510  18.2580130  52.9363420  14.8852730
  17.8076520  52.1217900  13.6913050  31.3443650  57.2646950  18.8343090
  31.8402770  57.0317820  19.6191970  31.1459720  56.4258790  18.4180730
  17.2244190  51.6460670  24.4694130  17.8720380  51.0958050  24.0289290
  17.6446030  51.9003820  25.2909940  33.6621080  53.7315820  14.6086910
  34.5870390  53.5997000  14.4005200  33.6396870  53.8108640  15.5623360
  33.7359570  54.5026480  17.2343620  32.9411070  54.4371600  17.7636530
  33.9402850  55.4377120  17.2228970  30.6777990  68.5418030  21.2282010
  31.2737060  68.2202600  20.5516430  30.9356140  68.0689850  22.0195280
  16.9776190  51.8016340  27.2119450  16.6291010  52.2580160  27.9777630
  16.6463890  50.9073470  27.2941880  18.5840560  64.9735940  31.3772640
  18.5410190  64.6028850  32.2587100  18.7151570  65.9113510  31.5174460
  22.2846590  66.5295530  26.9782360  22.0437950  66.7970090  26.0912880
  23.2249230  66.7001260  27.0333220  33.5450750  68.5489910  27.7793000
  33.0509030  68.9458780  27.0620130  32.9364040  67.9239120  28.1730280
  17.6496830  51.3292540  30.4870220  18.1979820  51.1480590  29.7236330
  17.7152140  50.5386650  31.0226530  18.4228590  67.9198190  28.4970420
  17.8288910  67.7882890  29.2360460  18.4152430  67.0836330  28.0312520
  31.2290200  69.1913330  25.0579740  30.7693170  69.9429140  24.6837760
  30.6002660  68.4719800  24.9994540  18.0540820  65.2856570  27.4478460
  17.3274880  64.6661860  27.3804410  18.1149970  65.6797180  26.5776540
  21.6585920  67.5001570  24.2327870  22.1750940  66.8888930  23.7076130
  22.3083300  68.0030350  24.7238880  24.3981420  68.3910060  25.0596850
  24.6859230  68.1364360  24.1829860  24.9104640  67.8387420  25.6502420
  32.0318070  52.4638600  21.6951270  31.9706470  51.5199820  21.5482290
  32.8110100  52.5718690  22.2404730  16.3370820  68.6030960  20.6575220
  16.1692860  67.9701640  21.3557110  15.4705330  68.8090360  20.3069410
  16.9598840  52.4347740  18.1607080  17.7178200  52.5476620  17.5871110
  16.4976010  53.2716940  18.1150510  23.5012650  54.5487010  21.1509390
  22.6887160  54.1743900  20.8105270  24.0054290  53.7932090  21.4530580
  28.0037630  51.2129460  22.3892460  28.6067000  51.7849670  22.8640980
  27.2630620  51.7768900  22.1666360  31.1472230  51.6151020  17.6632740
  31.3422860  52.5134470  17.9300170  30.3602100  51.3838100  18.1565690
  17.9433520  67.2964190  18.1025360  17.4181140  67.6772220  17.3987320
  17.8678100  67.9214960  18.8235070  19.3323990  52.9611790  16.7009050
  19.8616750  52.1741590  16.5717000  19.9652310  53.6402980  16.9344580
  21.5261830  52.6986930  19.7554440  20.8964570  51.9974240  19.9224570
  20.9866970  53.4591060  19.5387600  24.4653780  69.3126160  32.4265050
  25.3921090  69.0770430  32.4701010  24.4504210  70.1398160  31.9451080
  32.6998840  68.8551730  19.4239300  32.8751030  68.1689470  18.7800220
  32.0020410  69.3798780  19.0315970  20.5426490  69.2446570  16.9774610
  21.2745310  68.9605850  16.4298500  20.8020160  69.0059850  17.8673990
  19.7041280  65.3611300  16.9820940  19.0750160  65.8296400  17.5306770
  19.8189110  64.5160520  17.4167130  31.0331340  68.5396020  32.2506090
  31.8256660  68.0445250  32.0432050  31.3264490  69.2186160  32.8581700
  27.1591000  59.4116960   3.1322140  27.0785050  58.4971570   2.8613850
  26.7455420  59.9084030   2.4261850  25.2909040  61.1895980   5.0131410
  24.5151140  60.7096420   5.3029980  25.9421970  60.5101630   4.8387570
  19.3074870  61.5015790   5.8907170  18.4759750  61.2464500   6.2903680
  19.9155850  61.5726560   6.6265090  29.3116470  65.5956170   3.7930540
  28.8498000  64.8243410   4.1217710  30.1242020  65.6222240   4.2982990
  19.2876130  65.5355880   6.0865190  19.5904170  64.6453620   5.9075410
  20.0319720  66.0926100   5.8587440  15.6799830  59.0623330   5.5589260
  16.2515940  58.2945530   5.5592900  15.6801370  59.3612090   4.6495870
  25.5379780  67.8814180   3.4134530  24.9191220  68.3371680   2.8428970
  26.3931560  68.0365640   3.0124230  24.7318030  63.8653170   5.0201570
  24.6626310  62.9243110   4.8590700  25.4937890  63.9554580   5.5924140
  16.9224700  54.4707690   7.3458190  16.7427540  53.5733440   7.6260950
  16.5204780  55.0179560   8.0205140  25.7623200  56.6723550   5.2470500
  26.1388020  55.7995430   5.1344170  25.6642710  57.0082250   4.3560940
  29.5447320  54.1673990   2.1798840  30.3656940  53.6770560   2.2224320
  29.5781400  54.7571650   2.9330680  17.5411370  56.9668190   5.9540530
  18.2221480  57.2306560   6.5727930  17.2259420  56.1269060   6.2878540
  21.7335940  58.0135550   5.0413120  22.2414160  58.5116520   5.6818140
  22.2649180  57.2370750   4.8652480  33.8346870  56.1840740   8.7442470
  33.1299040  56.5722450   8.2257580  34.1004790  56.8791030   9.3463400
  20.0172040  52.6534110   9.3076540  20.0190480  53.1706500   8.5022440
  19.1876350  52.1764290   9.2846470  21.2674890  62.2929290   7.4850040
  20.9344270  62.9198210   8.1271110  21.4441570  62.8191170   6.7051710
  29.7808800  56.1074370   4.9526380  29.0764370  56.3959260   5.5329490
  30.1420960  56.9174480   4.5925940  19.6987370  54.3644070   7.3146990
  20.0404180  55.2086120   7.0200860  18.7603180  54.5127810   7.4312330
  20.4793990  64.2610090   9.2999220  21.0967990  64.9361170   9.0183670
  19.6187110  64.6698070   9.2086720  31.3971580  65.7249500   7.2153860
  30.7135100  66.3948610   7.2070530  31.9365870  65.9230150   6.4498720
  32.8495720  55.5529160   5.3435590  31.9020630  55.5868140   5.4751020
  33.1745710  56.3668110   5.7284950  23.3815260  51.8526340   3.6391580
  23.6890240  51.2973230   2.9227080  22.4515960  51.9870800   3.4564570
  28.9330320  67.5693630   5.9299040  28.9457480  67.1655920   5.0621300
  28.3805540  68.3440920   5.8260470  28.3315760  62.4723470   7.2581650
  28.7484550  62.2583580   6.4235110  29.0555580  62.7296260   7.8290270
  32.2777860  60.8710690   7.3497890  31.4496490  60.9403780   6.8748020
  32.8728340  61.4565000   6.8813720  29.2419870  57.6580010   8.2952760
  28.8291050  58.4833720   8.5492750  28.5095820  57.0725050   8.1029120
  21.3752660  60.4439910   3.1571430  20.9709660  59.7317160   2.6617330
  21.4615780  60.0993150   4.0459470  21.8434360  64.1307470   5.3210640
  21.5462650  63.5252940   4.6418420  22.7934180  64.1684780   5.2100000
  20.0881280  57.2183120   6.9370470  20.6395870  57.3278460   6.1623720
  20.6024790  57.5920720   7.6525700  29.9319970  67.7039340   8.9833740
  29.4550530  68.5111530   8.7906350  29.2481760  67.0517670   9.1359950
  20.9352790  63.8689160  11.9718440  20.0381320  64.0929130  12.2191840
  20.9605660  63.9924100  11.0229840  19.7624010  60.7402480  10.5475810
  19.6231780  61.6125280  10.9163210  18.8805370  60.3975290  10.4023750
  26.0853390  65.6578350   1.8540940  26.5249300  66.4002680   1.4396330
  26.0240280  65.9004920   2.7779900  21.5604360  66.6824180  12.7560960
  21.5319790  67.0867130  11.8889390  21.3969330  65.7534540  12.5932560
  33.5119180  67.4651280  14.0525130  33.9878900  67.9434170  14.7314210
  34.1326340  67.3968770  13.3270630  15.7142660  62.5100030   6.4646720
  15.7923080  62.6448800   5.5202440  16.3284340  61.8015920   6.6574840
  16.9590290  64.2100220   2.8752900  16.5518370  64.3514810   2.0206500
  17.8503300  63.9260380   2.6724110  32.9152430  64.6564130  11.2125140
  33.0415490  64.4176010  10.2942320  32.9573810  63.8248670  11.6847220
  26.7769170  68.3592130   9.7819950  27.2913840  68.2700140  10.5842380
  25.9338250  68.7051830  10.0747860  28.0199630  67.7797740   1.8450440
  28.4756580  66.9987120   2.1589060  28.3592150  68.4904560   2.3891620
  32.7676440  56.7096590  12.1774880  32.1520710  57.2176260  11.6490340
  32.4472860  55.8094920  12.1200820  15.7702180  63.5514200   9.0041180
  15.9333220  63.0819560   8.1860550  16.2354630  63.0437760   9.6690020
  20.5420950  52.6819960   4.0401750  20.0989100  53.4629500   3.7086270
  21.1005940  53.0049850   4.7472690  24.8290760  55.5488480   9.6437070
  24.3670130  55.7571500  10.4557010  24.4268870  54.7347830   9.3407740
  29.8295270  56.7697430  10.7733730  28.9788860  56.4703180  11.0942800
  29.6697060  57.0139440   9.8617550  26.9244980  58.2699180  12.8732520
  27.2498390  57.4362930  12.5334750  27.7125310  58.7927700  13.0210850
  22.5796850  53.2267290   5.8991350  22.8769180  54.1330120   5.8183370
  23.1282410  52.7386070   5.2850920  20.3335170  57.8053530   1.7683000
  20.1076090  57.5890700   2.6729620  19.5527700  58.2381990   1.4228970
  22.7734380  58.7039110  12.4343270  22.6777980  57.7633840  12.2843670
  23.6166360  58.9254180  12.0391340  26.1697800  56.4480440   2.3976930
  26.5627370  56.7652640   1.5845620  26.5314650  55.5692320   2.5121450
  17.9044920  55.1152780  10.5877050  17.5108310  55.9627990  10.7949830
  17.2163320  54.4779150  10.7785690  24.4789970  55.1987750  13.6573790
  23.7888290  55.0059950  14.2919880  25.2222270  55.4822390  14.1898090
  15.2061970  53.0381240   4.6207130  14.9175020  53.6084100   5.3332110
  15.9507730  52.5585690   4.9838360  26.7552940  59.0386190   6.4927710
  26.0234060  59.5473000   6.8417810  26.3577280  58.2216170   6.1916490
  23.1930330  55.7140390   4.8980200  23.1966390  55.2730340   4.0484740
  24.0881450  56.0357720   5.0052020  19.0432710  55.5966880   3.8574410
  18.7032760  56.0742110   4.6141460  18.2810030  55.1432000   3.4975510
  27.2178850  54.4919870   5.9050650  27.2351590  54.9428520   6.7492500
  26.9694430  53.5925510   6.1184090  30.6449600  51.9052050  11.7437030
  30.9695370  51.1741710  12.2695010  30.6806110  51.5865690  10.8418020
  17.3441160  62.9265630  11.1636990  16.9595950  62.2859300  11.7619950
  17.6553350  63.6301750  11.7331720  23.4938300  59.7742170   6.6445610
  23.8608430  59.3000740   7.3906950  23.3043360  60.6483740   6.9853950
  16.3578790  54.5185860   2.7739080  16.0725710  54.1541530   3.6117700
  16.2957650  53.7866320   2.1602220  21.2837670  58.8150810   8.9629820
  20.9794740  59.6942790   9.1880180  22.2384130  58.8750600   8.9987260
  30.5707440  62.0177160   5.3523060  31.2906560  62.5132450   4.9619170
  30.3689260  61.3395050   4.7076930  25.9526240  62.0886220  11.2392060
  25.8863550  61.1681890  10.9849650  25.3231380  62.1861660  11.9536700
  19.8556860  62.6892180   3.1975480  20.3735530  61.8860440   3.1432370
  19.4040880  62.6271320   4.0392310  17.3401400  59.6553550  10.1101180
  16.9816340  60.3207400  10.6974520  17.0455960  58.8237100  10.4813800
  20.5414520  60.1137790  12.9940730  20.2414660  60.2594970  12.0968550
  21.3125760  59.5543080  12.9014120  25.8842970  64.9106790  10.9895860
  25.8987510  63.9787750  10.7714770  25.1768070  64.9966550  11.6285630
  32.0954180  61.5514130  10.3364440  31.3702370  62.1442910  10.1393830
  32.6229640  61.5437670   9.5377810  27.6253770  63.2774300   3.8348290
  27.9777590  62.6802430   3.1749660  26.7416100  62.9518530   4.0056540
  25.3176870  66.5524360   8.0836360  25.9619090  66.7583740   8.7609780
  25.6806310  65.7912760   7.6307210  26.5908950  64.5556710   6.8013810
  27.2331180  63.8549870   6.9145980  27.1158300  65.3355150   6.6210700
  28.3646570  65.3551610  10.0049870  28.7002810  65.9418300  10.6827790
  27.4446910  65.2244320  10.2347660  15.9149970  53.1446790  10.7873280
  15.2008490  53.3443710  11.3925890  16.3345010  52.3686360  11.1588080
  16.2022560  67.1327050  11.7739810  16.3113680  66.1921790  11.6335200
  15.5503120  67.3981800  11.1253540  24.1935150  65.4042940  13.1737930
  23.8732020  64.6852180  13.7183620  23.5193510  66.0798010  13.2473990
  27.4088750  55.6369100   8.5374730  27.7769570  54.8164310   8.8654300
  26.5486950  55.6970990   8.9530380  24.3690740  58.2908690   8.7612700
  24.8675990  58.7654510   9.4264550  24.5113690  57.3672210   8.9682730
  31.5757600  54.5076650   9.6041090  31.0731200  55.2482050   9.9434900
  32.3914260  54.8960650   9.2877880  29.8679610  59.7509830   3.0502450
  28.9269750  59.7660060   3.2250140  30.1823680  58.9645790   3.4962750
  31.8705190  66.9218680   4.7256710  31.9952610  67.7449850   5.1980520
  32.7370750  66.7109410   4.3780860  19.3422720  69.0149890   4.3973840
  20.0785200  68.4665350   4.6682410  19.7263640  69.8805900   4.2579830
  18.3481000  68.1995960  13.5859420  19.1493730  68.5208010  13.9994820
  17.8332820  67.8391540  14.3079330  27.1845630  64.3075830  13.5334830
  26.5783790  64.3307430  12.7930580  26.8799740  63.5758870  14.0702080
  28.6146000  68.0356120  12.1444240  29.5667750  67.9514140  12.0944480
  28.4674220  68.6997830  12.8178030  16.0678810  60.6869420  12.5295470
  16.5717830  60.1076700  13.1011700  15.3286230  60.9709650  13.0671840
  23.1216750  62.0940410  12.0630990  22.3562420  62.6625410  11.9785660
  23.3032710  61.8016620  11.1699220  30.2640100  63.8245740  12.6206010
  31.0049570  64.1621500  12.1173470  29.5012780  63.9937800  12.0675780
  18.1001890  58.8299010  13.4245540  18.1407230  58.5312880  14.3330770
  18.9547390  59.2306620  13.2653060  20.0407700  57.4091110  11.3920030
  19.5104160  56.9182060  10.7643370  20.7095770  57.8375310  10.8577960
  28.9385760  61.8760570  11.1561220  29.3526780  62.0305650  12.0051640
  28.0036760  62.0015790  11.3187000  29.4107930  59.2156730  13.1600370
  29.9928700  58.4609050  13.0720850  29.5869700  59.7464170  12.3831850
  20.5280000  54.3753480  11.4717320  20.4336870  53.7574230  10.7468190
  19.9477390  55.1019770  11.2447230  23.2941440  52.9326720   8.5044710
  22.8458740  52.9550980   7.6590260  22.6606640  52.5345740   9.1015010
  23.7000990  61.8281050   9.1257150  24.1189100  62.6713780   8.9533390
  22.7809620  61.9653090   8.8963930  26.0364890  59.5597230  10.5094990
  26.1561100  58.9638370  11.2489830  26.8958890  59.5966920  10.0896290
  28.3752790  60.1134420   9.0857500  27.8488010  60.6377040   8.4822640
  28.7184130  60.7461810   9.7167230  21.5508410  68.1334060  10.2414880
  21.0129500  68.8580120   9.9223580  21.8042370  67.6564400   9.4512220
  22.8033660  56.1018580  11.7670810  23.3933350  55.7934430  12.4548630
  21.9853900  55.6298330  11.9230710  27.6227090  55.7184390  12.0003830
  26.9342610  55.0565930  11.9353820  28.3433110  55.2722660  12.4452290
  24.4070620  69.3685270  10.5001530  24.3329320  70.2720410  10.8073900
  23.5049460  69.0497170  10.4723600  15.8097910  66.6959860   3.8035150
  16.1400920  65.8280920   3.5713790  16.2388910  66.9018380   4.6340110
  16.2988120  67.5630450   6.5416780  15.8619110  67.7431250   7.3740930
  16.8665800  68.3205070   6.3998500  31.9350300  67.0647450  10.8294090
  31.3352290  67.1240010  10.0858010  32.0644200  66.1252430  10.9590940
  16.1312550  60.0750680   2.9005660  15.4761390  59.8062320   2.2565360
  16.9690500  59.9655160   2.4507640  33.6368180  62.4062850   3.5139930
  34.0077010  61.6230170   3.1075900  34.2770110  63.0951950   3.3357230
  30.6201940  63.7899430   8.9270250  29.8061780  64.2196590   9.1896040
  31.0276140  64.4017840   8.3139300  17.1688480  60.4603250   7.4409000
  17.5361520  60.3730650   8.3205020  16.5999300  59.6969800   7.3415860
  31.9692340  58.9287630  10.4539470  31.7378430  58.7000380   9.5537420
  32.2296890  59.8487180  10.4084360  16.7204480  57.3712340  11.3467420
  15.8260530  57.3379100  11.6861130  17.2602030  57.5699130  12.1118670
  30.4080410  54.1544060  13.2319170  31.2850590  54.1627460  13.6153170
  30.4201250  53.4174900  12.6211520  31.8543680  58.0073600   4.1207190
  32.3781160  57.5136250   3.4897360  32.4403100  58.1423960   4.8654760
  32.0333400  58.0913470   7.6426740  31.0836110  58.0577010   7.7571730
  32.2146410  59.0013580   7.4076510  17.2244190  51.6460670   5.6950640
  17.8720380  51.0958050   5.2545800  17.6446030  51.9003820   6.5166450
  32.7730810  55.9007900   2.5937280  32.6630090  55.7463940   3.5319550
  33.5338400  55.3728840   2.3512690  31.1196530  51.8402030   9.0520280
  31.7568750  52.4536170   9.4179470  31.2671420  51.8762690   8.1069510
  30.6777990  68.5418030   2.4538520  31.2737060  68.2202600   1.7772940
  30.9356140  68.0689850   3.2451790  16.9776190  51.8016340   8.4375960
  16.6291010  52.2580160   9.2034140  16.6463890  50.9073470   8.5198390
  18.5840560  64.9735940  12.6029150  18.5410190  64.6028850  13.4843610
  18.7151570  65.9113510  12.7430970  22.2846590  66.5295530   8.2038870
  22.0437950  66.7970090   7.3169390  23.2249230  66.7001260   8.2589730
  24.4901010  52.9928220  11.9595380  24.4289900  53.5850050  12.7090790
  25.4301390  52.8854180  11.8145640  27.1275570  52.6498280  11.5987670
  27.7415980  52.9677570  10.9368750  27.6725130  52.1646870  12.2183530
  33.5450750  68.5489910   9.0049510  33.0509030  68.9458780   8.2876640
  32.9364040  67.9239120   9.3986790  17.6496830  51.3292540  11.7126730
  18.1979820  51.1480590  10.9492840  17.7152140  50.5386650  12.2483040
  18.4228590  67.9198190   9.7226930  17.8288910  67.7882890  10.4616970
  18.4152430  67.0836330   9.2569030  27.8683610  51.2130420   7.9256960
  26.9943450  51.5465530   7.7229890  27.7594360  50.7403600   8.7508830
  28.7755590  53.4201290   9.3098680  28.4468950  52.6053050   8.9300410
  29.7237890  53.3771100   9.1864370  31.2290200  69.1913330   6.2836250
  30.7693170  69.9429140   5.9094270  30.6002660  68.4719800   6.2251050
  18.0540820  65.2856570   8.6734970  17.3274880  64.6661860   8.6060920
  18.1149970  65.6797180   7.8033050  21.6585920  67.5001570   5.4584380
  22.1750940  66.8888930   4.9332640  22.3083300  68.0030350   5.9495390
  24.3981420  68.3910060   6.2853360  24.6859230  68.1364360   5.4086370
  24.9104640  67.8387420   6.8758930  25.6158430  52.1300260   6.8649870
  24.8330220  52.6045760   7.1446630  25.3221360  51.2255090   6.7563050
  30.1679500  52.8323360   4.9098960  30.6087590  52.7768460   4.0620560
  29.8987090  53.7481370   4.9809140  32.0318070  52.4638600   2.9207780
  31.9706470  51.5199820   2.7738800  32.8110100  52.5718690   3.4661240
  16.3370820  68.6030960   1.8831730  16.1692860  67.9701640   2.5813620
  15.4705330  68.8090360   1.5325920  23.5012650  54.5487010   2.3765900
  22.6887160  54.1743900   2.0361780  24.0054290  53.7932090   2.6787090
  28.0037630  51.2129460   3.6148970  28.6067000  51.7849670   4.0897490
  27.2630620  51.7768900   3.3922870  24.4653780  69.3126160  13.6521560
  25.3921090  69.0770430  13.6957520  24.4504210  70.1398160  13.1707590
  21.6517390  51.9770910  13.4163440  21.3701660  52.4804510  12.6524260
  22.0337090  51.1792660  13.0505570  28.2532850  51.3924490  13.9943910
  28.1398300  51.7119100  14.8895430  29.0702590  51.7937000  13.6981190
  31.0331340  68.5396020  13.4762600  31.8256660  68.0445250  13.2688560
  31.3264490  69.2186160  14.0838210  27.1591000  40.6373470  78.2296100
  27.0785050  39.7228080  77.9587810  26.7455420  41.1340540  77.5235810
  25.2909040  42.4152490  80.1105370  24.5151140  41.9352930  80.4003940
  25.9421970  41.7358140  79.9361530  19.3074870  42.7272300  80.9881130
  18.4759750  42.4721010  81.3877640  19.9155850  42.7983070  81.7239050
  29.3116470  46.8212680  78.8904500  28.8498000  46.0499920  79.2191670
  30.1242020  46.8478750  79.3956950  19.2876130  46.7612390  81.1839150
  19.5904170  45.8710130  81.0049370  20.0319720  47.3182610  80.9561400
  17.7166820  37.6874190  74.7723520  16.8283520  38.0290160  74.6703400
  18.0008010  37.4874510  73.8804350  15.6799830  40.2879840  80.6563220
  16.2515940  39.5202040  80.6566860  15.6801370  40.5868600  79.7469830
  25.5379780  49.1070690  78.5108490  24.9191220  49.5628190  77.9402930
  26.3931560  49.2622150  78.1098190  24.7318030  45.0909680  80.1175530
  24.6626310  44.1499620  79.9564660  25.4937890  45.1811090  80.6898100
  16.9224700  35.6964200  82.4432150  16.7427540  34.7989950  82.7234910
  16.5204780  36.2436070  83.1179100  25.7623200  37.8980060  80.3444460
  26.1388020  37.0251940  80.2318130  25.6642710  38.2338760  79.4534900
  19.8928210  36.2705690  75.8061900  19.9994960  37.1709420  76.1130660
  18.9820570  36.2223660  75.5156550  29.5447320  35.3930500  77.2772800
  30.3656940  34.9027070  77.3198280  29.5781400  35.9828160  78.0304640
  17.5411370  38.1924700  81.0514490  18.2221480  38.4563070  81.6701890
  17.2259420  37.3525570  81.3852500  21.7335940  39.2392060  80.1387080
  22.2414160  39.7373030  80.7792100  22.2649180  38.4627260  79.9626440
  26.4043130  43.9909930  75.9040400  25.7860400  44.4559380  75.3403120
  26.9166380  44.6837410  76.3209910  21.2674890  43.5185800  82.5824000
  20.9344270  44.1454720  83.2245070  21.4441570  44.0447680  81.8025670
  29.7808800  37.3330880  80.0500340  29.0764370  37.6215770  80.6303450
  30.1420960  38.1430990  79.6899900  19.6987370  35.5900580  82.4120950
  20.0404180  36.4342630  82.1174820  18.7603180  35.7384320  82.5286290
  15.7726330  44.6766460  73.2780030  15.3954310  45.1653560  72.5464930
  16.0299400  45.3491740  73.9086560  31.3971580  46.9506010  82.3127820
  30.7135100  47.6205120  82.3044490  31.9365870  47.1486660  81.5472680
  32.8495720  36.7785670  80.4409550  31.9020630  36.8124650  80.5724980
  33.1745710  37.5924620  80.8258910  23.3815260  33.0782850  78.7365540
  23.6890240  32.5229740  78.0201040  22.4515960  33.2127310  78.5538530
  28.9330320  48.7950140  81.0273000  28.9457480  48.3912430  80.1595260
  28.3805540  49.5697430  80.9234430  30.2275740  45.5166360  76.1163170
  30.1172070  44.5740690  76.2412590  30.2243990  45.8782000  77.0025930
  28.3315760  43.6979980  82.3555610  28.7484550  43.4840090  81.5209070
  29.0555580  43.9552770  82.9264230  25.7696020  41.1431680  75.4725660
  24.8425300  41.0769060  75.7014130  25.9220840  42.0811810  75.3580900
  25.7565100  37.4148680  72.4692820  24.8168770  37.5762640  72.5545280
  26.0748360  38.1334360  71.9228810  32.2777860  42.0967200  82.4471850
  31.4496490  42.1660290  81.9721980  32.8728340  42.6821510  81.9787680
  29.7993310  42.7051980  75.9760910  29.1805730  42.3671530  75.3287210
  29.7817760  42.0611740  76.6840100  21.3752660  41.6696420  78.2545390
  20.9709660  40.9573670  77.7591290  21.4615780  41.3249660  79.1433430
  21.8434360  45.3563980  80.4184600  21.5462650  44.7509450  79.7392380
  22.7934180  45.3941290  80.3073960  20.0881280  38.4439630  82.0344430
  20.6395870  38.5534970  81.2597680  20.6024790  38.8177230  82.7499660
  27.9758010  41.9438790  72.9833660  28.4151290  41.1061220  72.8371480
  28.6886430  42.5768190  73.0697800  26.0853390  46.8834860  76.9514900
  26.5249300  47.6259190  76.5370290  26.0240280  47.1261430  77.8753860
  31.5575150  33.1981600  71.2974700  31.2447810  33.2908430  72.1973770
  32.3187620  33.7762630  71.2472130  18.0757290  40.5641400  75.7552040
  17.9554890  41.2903490  75.1433310  17.7658180  39.7944310  75.2779950
  15.7142660  43.7356540  81.5620680  15.7923080  43.8705310  80.6176400
  16.3284340  43.0272430  81.7548800  16.9590290  45.4356730  77.9726860
  16.5518370  45.5771320  77.1180460  17.8503300  45.1516890  77.7698070
  28.7523570  49.8703980  74.3077910  28.5924710  49.5806920  75.2059740
  28.5870280  49.0944110  73.7723140  21.2311950  49.6502510  76.0849530
  21.0554430  48.7338050  75.8717330  20.3767690  50.0089800  76.3247330
  28.4549700  47.3791540  72.8675910  27.7614860  47.3768830  72.2078190
  29.1972560  46.9550860  72.4370080  28.0199630  49.0054250  76.9424400
  28.4756580  48.2243630  77.2563020  28.3592150  49.7161070  77.4865580
  20.5420950  33.9076470  79.1375710  20.0989100  34.6886010  78.8060230
  21.1005940  34.2306360  79.8446650  23.6579770  33.5287170  74.0181540
  23.0333950  33.5247040  74.7434850  23.5709890  32.6618130  73.6217510
  22.5796850  34.4523800  80.9965310  22.8769180  35.3586630  80.9157330
  23.1282410  33.9642580  80.3824880  20.3335170  39.0310040  76.8656960
  20.1076090  38.8147210  77.7703580  19.5527700  39.4638500  76.5202930
  27.5632930  39.0373410  75.4647610  26.9641820  39.7609210  75.2811230
  28.1112540  38.9750190  74.6824060  26.1697800  37.6736950  77.4950890
  26.5627370  37.9909150  76.6819580  26.5314650  36.7948830  77.6095410
  15.2061970  34.2637750  79.7181090  14.9175020  34.8340610  80.4306070
  15.9507730  33.7842200  80.0812320  15.3932200  38.2057870  70.9283810
  15.3106870  39.1488630  71.0698800  15.0415260  38.0632780  70.0496160
  26.7552940  40.2642700  81.5901670  26.0234060  40.7729510  81.9391770
  26.3577280  39.4472680  81.2890450  23.1930330  36.9396900  79.9954160
  23.1966390  36.4986850  79.1458700  24.0881450  37.2614230  80.1025980
  19.0432710  36.8223390  78.9548370  18.7032760  37.2998620  79.7115420
  18.2810030  36.3688510  78.5949470  23.2550480  37.9408980  72.9860920
  23.3763300  37.8995460  73.9346740  22.8698990  38.8033130  72.8307650
  27.2178850  35.7176380  81.0024610  27.2351590  36.1685030  81.8466460
  26.9694430  34.8182020  81.2158050  22.2671980  40.2510120  72.3844220
  21.6988880  39.8028370  71.7580130  22.9760980  40.6102900  71.8509370
  23.4938300  40.9998680  81.7419570  23.8608430  40.5257250  82.4880910
  23.3043360  41.8740250  82.0827910  16.3578790  35.7442370  77.8713040
  16.0725710  35.3798040  78.7091660  16.2957650  35.0122830  77.2576180
  19.8119460  44.2468310  74.6570630  19.0381720  43.7065930  74.4969350
  20.5414090  43.7274920  74.3188390  30.5707440  43.2433670  80.4497020
  31.2906560  43.7388960  80.0593130  30.3689260  42.5651560  79.8050890
  26.0317380  34.6371630  74.5926410  25.2181990  34.1384800  74.5171720
  25.8379330  35.4769880  74.1762760  28.7465770  39.0091280  72.8888570
  29.6345390  39.3208510  72.7139910  28.7170860  38.1363530  72.4969150
  19.8556860  43.9148690  78.2949440  20.3735530  43.1116950  78.2406330
  19.4040880  43.8527830  79.1366270  24.7426360  45.1814970  73.5676740
  25.0842060  45.9257200  73.0720060  23.9139070  45.4946090  73.9301570
  31.0180040  40.3203120  72.3568430  30.9343760  40.7517340  71.5064870
  31.7374230  40.7801470  72.7895250  32.0467290  47.1745380  75.0850560
  31.4043450  46.5201000  75.3594280  31.6597950  47.5800470  74.3091230
  27.6253770  44.5030810  78.9322250  27.9777590  43.9058940  78.2723620
  26.7416100  44.1775040  79.1030500  23.7117050  45.2628500  76.3392660
  24.3988180  45.8097710  76.7200250  22.9249470  45.8069230  76.3742270
  15.8509450  40.8801320  71.8309740  16.7204300  41.1626120  72.1145660
  15.3599770  41.6937190  71.7158550  23.0144260  42.2674530  75.9518020
  23.4707040  43.0779780  76.1778210  22.6632470  41.9497670  76.7836510
  18.9156040  32.6112180  76.4240540  18.7870670  32.6030080  77.3725460
  18.0918060  32.9495270  76.0731550  26.5908950  45.7813220  81.8987770
  27.2331180  45.0806380  82.0119940  27.1158300  46.5611660  81.7184660
  30.4364670  46.0661840  71.6226910  30.2102250  45.3492280  72.2151550
  30.0460870  45.8174280  70.7848660  16.2180700  50.0928700  72.3971370
  16.5778340  50.6918040  71.7428640  16.0773040  50.6388590  73.1706400
  30.0180920  43.9833780  73.2841070  29.7302620  44.4446470  74.0718950
  30.8133090  43.5231550  73.5525290  22.2349320  47.4759900  73.2145040
  22.2259420  48.2089590  72.5989550  21.3147680  47.2291480  73.3072000
  17.8355960  42.6974790  73.9591800  17.2283910  43.4373690  73.9687100
  18.3105310  42.7874150  73.1330000  30.7750780  35.8182550  74.4436250
  30.1463940  35.9228220  73.7294480  30.2802700  36.0379330  75.2330130
  25.2208920  47.5388140  71.8770230  25.3220900  47.3352130  70.9472210
  24.3210660  47.2846420  72.0818010  22.7434810  38.0968500  75.8594130
  22.0350960  38.5654840  76.3007740  23.0279290  37.4390510  76.4939320
  26.7750240  34.8219160  77.2989920  26.6518020  34.8405290  76.3499430
  27.7234800  34.8698100  77.4188320  23.8627030  50.0574460  76.5717900
  24.1168530  50.0195850  75.6497270  22.9139510  49.9307790  76.5646150
  20.9469830  36.4053580  73.2344840  21.7960360  36.8423730  73.1685030
  20.5801100  36.7173840  74.0616900  29.8679610  40.9766340  78.1476410
  28.9269750  40.9916570  78.3224100  30.1823680  40.1902300  78.5936710
  19.8461250  42.6585940  71.7080370  20.6124520  42.5467300  72.2705800
  19.9235940  41.9623910  71.0557140  18.5408010  40.0911010  72.3913260
  18.6211600  39.1438520  72.5030660  19.4327760  40.4217890  72.4973920
  31.8705190  48.1475190  79.8230670  31.9952610  48.9706360  80.2954480
  32.7370750  47.9365920  79.4754820  19.3422720  50.2406400  79.4947800
  20.0785200  49.6921860  79.7656370  19.7263640  51.1062410  79.3553790
  16.2268200  46.3079970  75.3689310  15.3007980  46.5501110  75.3594720
  16.6924630  47.1354230  75.2474060  22.4525030  49.4136710  71.3173370
  23.2453640  49.7025540  70.8655160  21.9329380  48.9828880  70.6385850
  31.5055200  48.6406840  72.7410110  31.2196710  48.2271980  71.9264290
  31.3074750  49.5694550  72.6210630  22.9702430  44.6340120  71.1815720
  22.8653070  44.0192470  71.9077100  22.8026650  44.1106010  70.3978730
  26.2105160  43.6960150  71.7857710  25.6615260  44.1429450  72.4300450
  26.8324420  43.1909400  72.3095380  21.8780280  42.6551070  73.6823010
  22.2996700  42.4890940  74.5254400  22.0031120  41.8451300  73.1878150
  24.3907920  41.6788680  70.9300110  24.9113580  40.9637700  70.5641260
  25.0376320  42.3174550  71.2300620  20.7739180  38.7284300  70.6281170
  20.5728240  37.8651660  70.9894510  20.6031230  38.6417660  69.6902770
  28.2527490  33.5392530  73.1568050  28.5329780  32.6960430  73.5127470
  27.4793220  33.7715640  73.6706800  19.5721980  35.8284920  70.6159050
  19.8747880  35.8352350  69.7078200  20.3116570  35.4782780  71.1126710
  22.7906910  34.7719540  71.6015250  22.4428910  34.0943530  71.0217700
  22.9919680  34.3109050  72.4158640  24.9555950  49.7600290  73.2201850
  25.8506740  50.0985260  73.2420610  24.9873580  49.0379700  72.5926130
  18.5952110  45.1327340  71.4488850  19.0326980  45.6757010  72.1046430
  19.0799840  44.3074290  71.4585190  15.8097910  47.9216370  78.9009110
  16.1400920  47.0537430  78.6687750  16.2388910  48.1274890  79.7314070
  20.4059830  46.2525380  76.5611080  20.1055370  46.1290350  77.4614990
  20.2997320  45.3933970  76.1526810  16.2988120  48.7886960  81.6390740
  15.8619110  48.9687760  82.4714890  16.8665800  49.5461580  81.4972460
  33.1751750  46.0321780  71.2637760  32.3444710  46.0998430  71.7344990
  33.3523580  46.9225900  70.9604620  32.6308210  42.7769260  73.7671960
  33.3927120  43.3465910  73.8731650  32.6462580  42.2096460  74.5380270
  16.1312550  41.3007190  77.9979620  15.4761390  41.0318830  77.3539320
  16.9690500  41.1911670  77.5481600  33.6368180  43.6319360  78.6113890
  34.0077010  42.8486680  78.2049860  34.2770110  44.3208460  78.4331190
  32.6827380  43.0703630  70.9244480  32.9576220  43.9782510  70.7963700
  32.4938120  43.0066160  71.8606470  29.0802990  36.0948480  72.2198110
  29.4987870  35.9079460  71.3794770  28.7739050  35.2427530  72.5301040
  32.5792720  41.0072620  75.9173910  32.2036320  40.2400550  75.4855200
  31.8495840  41.3895320  76.4048840  15.3450630  38.5106120  73.9404950
  14.4414710  38.7736320  73.7656610  15.8291250  38.7817290  73.1604910
  31.8543680  39.2330110  79.2181150  32.3781160  38.7392760  78.5871320
  32.4403100  39.3680470  79.9628720  32.0333400  39.3169980  82.7400700
  31.0836110  39.2833520  82.8545690  32.2146410  40.2270090  82.5050470
  17.8877840  37.5671660  71.8499330  18.5969540  37.1454880  71.3646610
  17.1717780  37.6346890  71.2182680  17.5352000  33.6210990  70.8901980
  18.2580130  34.1619930  71.2083200  17.8076520  33.3474410  70.0143520
  31.3443650  38.4903460  75.1573560  31.8402770  38.2574330  75.9422440
  31.1459720  37.6515300  74.7411200  17.2244190  32.8717180  80.7924600
  17.8720380  32.3214560  80.3519760  17.6446030  33.1260330  81.6140410
  32.7730810  37.1264410  77.6911240  32.6630090  36.9720450  78.6293510
  33.5338400  36.5985350  77.4486650  33.6621080  34.9572330  70.9317380
  34.5870390  34.8253510  70.7235670  33.6396870  35.0365150  71.8853830
  33.7359570  35.7282990  73.5574090  32.9411070  35.6628110  74.0867000
  33.9402850  36.6633630  73.5459440  30.6777990  49.7674540  77.5512480
  31.2737060  49.4459110  76.8746900  30.9356140  49.2946360  78.3425750
  31.2290200  50.4169840  81.3810210  30.7693170  51.1685650  81.0068230
  30.6002660  49.6976310  81.3225010  21.6585920  48.7258080  80.5558340
  22.1750940  48.1145440  80.0306600  22.3083300  49.2286860  81.0469350
  24.3981420  49.6166570  81.3827320  24.6859230  49.3620870  80.5060330
  24.9104640  49.0643930  81.9732890  25.6158430  33.3556770  81.9623830
  24.8330220  33.8302270  82.2420590  25.3221360  32.4511600  81.8537010
  30.1679500  34.0579870  80.0072920  30.6087590  34.0024970  79.1594520
  29.8987090  34.9737880  80.0783100  32.0318070  33.6895110  78.0181740
  31.9706470  32.7456330  77.8712760  32.8110100  33.7975200  78.5635200
  16.3370820  49.8287470  76.9805690  16.1692860  49.1958150  77.6787580
  15.4705330  50.0346870  76.6299880  16.9598840  33.6604250  74.4837550
  17.7178200  33.7733130  73.9101580  16.4976010  34.4973450  74.4380980
  23.5012650  35.7743520  77.4739860  22.6887160  35.4000410  77.1335740
  24.0054290  35.0188600  77.7761050  28.0037630  32.4385970  78.7122930
  28.6067000  33.0106180  79.1871450  27.2630620  33.0025410  78.4896830
  31.1472230  32.8407530  73.9863210  31.3422860  33.7390980  74.2530640
  30.3602100  32.6094610  74.4796160  17.9433520  48.5220700  74.4255830
  17.4181140  48.9028730  73.7217790  17.8678100  49.1471470  75.1465540
  19.3323990  34.1868300  73.0239520  19.8616750  33.3998100  72.8947470
  19.9652310  34.8659490  73.2575050  21.5261830  33.9243440  76.0784910
  20.8964570  33.2230750  76.2455040  20.9866970  34.6847570  75.8618070
  32.6998840  50.0808240  75.7469770  32.8751030  49.3945980  75.1030690
  32.0020410  50.6055290  75.3546440  20.5426490  50.4703080  73.3005080
  21.2745310  50.1862360  72.7528970  20.8020160  50.2316360  74.1904460
  19.7041280  46.5867810  73.3051410  19.0750160  47.0552910  73.8537240
  19.8189110  45.7417030  73.7397600  27.1591000  40.6373470  59.4552610
  27.0785050  39.7228080  59.1844320  26.7455420  41.1340540  58.7492320
  25.2909040  42.4152490  61.3361880  24.5151140  41.9352930  61.6260450
  25.9421970  41.7358140  61.1618040  19.3074870  42.7272300  62.2137640
  18.4759750  42.4721010  62.6134150  19.9155850  42.7983070  62.9495560
  29.3116470  46.8212680  60.1161010  28.8498000  46.0499920  60.4448180
  30.1242020  46.8478750  60.6213460  19.2876130  46.7612390  62.4095660
  19.5904170  45.8710130  62.2305880  20.0319720  47.3182610  62.1817910
  17.7166820  37.6874190  55.9980030  16.8283520  38.0290160  55.8959910
  18.0008010  37.4874510  55.1060860  15.6799830  40.2879840  61.8819730
  16.2515940  39.5202040  61.8823370  15.6801370  40.5868600  60.9726340
  25.5379780  49.1070690  59.7365000  24.9191220  49.5628190  59.1659440
  26.3931560  49.2622150  59.3354700  24.7318030  45.0909680  61.3432040
  24.6626310  44.1499620  61.1821170  25.4937890  45.1811090  61.9154610
  16.9224700  35.6964200  63.6688660  16.7427540  34.7989950  63.9491420
  16.5204780  36.2436070  64.3435610  25.7623200  37.8980060  61.5700970
  26.1388020  37.0251940  61.4574640  25.6642710  38.2338760  60.6791410
  19.8928210  36.2705690  57.0318410  19.9994960  37.1709420  57.3387170
  18.9820570  36.2223660  56.7413060  17.5411370  38.1924700  62.2771000
  18.2221480  38.4563070  62.8958400  17.2259420  37.3525570  62.6109010
  21.7335940  39.2392060  61.3643590  22.2414160  39.7373030  62.0048610
  22.2649180  38.4627260  61.1882950  33.8346870  37.4097250  65.0672940
  33.1299040  37.7978960  64.5488050  34.1004790  38.1047540  65.6693870
  20.0172040  33.8790620  65.6307010  20.0190480  34.3963010  64.8252910
  19.1876350  33.4020800  65.6076940  26.4043130  43.9909930  57.1296910
  25.7860400  44.4559380  56.5659630  26.9166380  44.6837410  57.5466420
  21.2674890  43.5185800  63.8080510  20.9344270  44.1454720  64.4501580
  21.4441570  44.0447680  63.0282180  19.6987370  35.5900580  63.6377460
  20.0404180  36.4342630  63.3431330  18.7603180  35.7384320  63.7542800
  20.4793990  45.4866600  65.6229690  21.0967990  46.1617680  65.3414140
  19.6187110  45.8954580  65.5317190  15.7726330  44.6766460  54.5036540
  15.3954310  45.1653560  53.7721440  16.0299400  45.3491740  55.1343070
  23.3815260  33.0782850  59.9622050  23.6890240  32.5229740  59.2457550
  22.4515960  33.2127310  59.7795040  28.9330320  48.7950140  62.2529510
  28.9457480  48.3912430  61.3851770  28.3805540  49.5697430  62.1490940
  30.2275740  45.5166360  57.3419680  30.1172070  44.5740690  57.4669100
  30.2243990  45.8782000  58.2282440  28.3315760  43.6979980  63.5812120
  28.7484550  43.4840090  62.7465580  29.0555580  43.9552770  64.1520740
  25.7696020  41.1431680  56.6982170  24.8425300  41.0769060  56.9270640
  25.9220840  42.0811810  56.5837410  32.2777860  42.0967200  63.6728360
  31.4496490  42.1660290  63.1978490  32.8728340  42.6821510  63.2044190
  29.2419870  38.8836520  64.6183230  28.8291050  39.7090230  64.8723220
  28.5095820  38.2981560  64.4259590  21.3752660  41.6696420  59.4801900
  20.9709660  40.9573670  58.9847800  21.4615780  41.3249660  60.3689940
  21.8434360  45.3563980  61.6441110  21.5462650  44.7509450  60.9648890
  22.7934180  45.3941290  61.5330470  20.0881280  38.4439630  63.2600940
  20.6395870  38.5534970  62.4854190  20.6024790  38.8177230  63.9756170
  29.9319970  48.9295850  65.3064210  29.4550530  49.7368040  65.1136820
  29.2481760  48.2774180  65.4590420  20.9352790  45.0945670  68.2948910
  20.0381320  45.3185640  68.5422310  20.9605660  45.2180610  67.3460310
  19.7624010  41.9658990  66.8706280  19.6231780  42.8381790  67.2393680
  18.8805370  41.6231800  66.7254220  26.0853390  46.8834860  58.1771410
  26.5249300  47.6259190  57.7626800  26.0240280  47.1261430  59.1010370
  21.5604360  47.9080690  69.0791430  21.5319790  48.3123640  68.2119860
  21.3969330  46.9791050  68.9163030  18.0757290  40.5641400  56.9808550
  17.9554890  41.2903490  56.3689820  17.7658180  39.7944310  56.5036460
  33.5119180  48.6907790  70.3755600  33.9878900  49.1690680  71.0544680
  34.1326340  48.6225280  69.6501100  15.7142660  43.7356540  62.7877190
  15.7923080  43.8705310  61.8432910  16.3284340  43.0272430  62.9805310
  16.9590290  45.4356730  59.1983370  16.5518370  45.5771320  58.3436970
  17.8503300  45.1516890  58.9954580  32.9152430  45.8820640  67.5355610
  33.0415490  45.6432520  66.6172790  32.9573810  45.0505180  68.0077690
  26.7769170  49.5848640  66.1050420  27.2913840  49.4956650  66.9072850
  25.9338250  49.9308340  66.3978330  28.7523570  49.8703980  55.5334420
  28.5924710  49.5806920  56.4316250  28.5870280  49.0944110  54.9979650
  21.2311950  49.6502510  57.3106040  21.0554430  48.7338050  57.0973840
  20.3767690  50.0089800  57.5503840  28.0199630  49.0054250  58.1680910
  28.4756580  48.2243630  58.4819530  28.3592150  49.7161070  58.7122090
  32.7676440  37.9353100  68.5005350  32.1520710  38.4432770  67.9720810
  32.4472860  37.0351430  68.4431290  15.7702180  44.7770710  65.3271650
  15.9333220  44.3076070  64.5091020  16.2354630  44.2694270  65.9920490
  20.5420950  33.9076470  60.3632220  20.0989100  34.6886010  60.0316740
  21.1005940  34.2306360  61.0703160  24.8290760  36.7744990  65.9667540
  24.3670130  36.9828010  66.7787480  24.4268870  35.9604340  65.6638210
  29.8295270  37.9953940  67.0964200  28.9788860  37.6959690  67.4173270
  29.6697060  38.2395950  66.1848020  26.9244980  39.4955690  69.1962990
  27.2498390  38.6619440  68.8565220  27.7125310  40.0184210  69.3441320
  23.6579770  33.5287170  55.2438050  23.0333950  33.5247040  55.9691360
  23.5709890  32.6618130  54.8474020  22.5796850  34.4523800  62.2221820
  22.8769180  35.3586630  62.1413840  23.1282410  33.9642580  61.6081390
  20.3335170  39.0310040  58.0913470  20.1076090  38.8147210  58.9960090
  19.5527700  39.4638500  57.7459440  22.7734380  39.9295620  68.7573740
  22.6777980  38.9890350  68.6074140  23.6166360  40.1510690  68.3621810
  26.1697800  37.6736950  58.7207400  26.5627370  37.9909150  57.9076090
  26.5314650  36.7948830  58.8351920  17.9044920  36.3409290  66.9107520
  17.5108310  37.1884500  67.1180300  17.2163320  35.7035660  67.1016160
  24.4789970  36.4244260  69.9804260  23.7888290  36.2316460  70.6150350
  25.2222270  36.7078900  70.5128560  15.2061970  34.2637750  60.9437600
  14.9175020  34.8340610  61.6562580  15.9507730  33.7842200  61.3068830
  15.3932200  38.2057870  52.1540320  15.3106870  39.1488630  52.2955310
  15.0415260  38.0632780  51.2752670  26.7552940  40.2642700  62.8158180
  26.0234060  40.7729510  63.1648280  26.3577280  39.4472680  62.5146960
  23.1930330  36.9396900  61.2210670  23.1966390  36.4986850  60.3715210
  24.0881450  37.2614230  61.3282490  19.0432710  36.8223390  60.1804880
  18.7032760  37.2998620  60.9371930  18.2810030  36.3688510  59.8205980
  27.2178850  35.7176380  62.2281120  27.2351590  36.1685030  63.0722970
  26.9694430  34.8182020  62.4414560  22.2671980  40.2510120  53.6100730
  21.6988880  39.8028370  52.9836640  22.9760980  40.6102900  53.0765880
  30.6449600  33.1308560  68.0667500  30.9695370  32.3998220  68.5925480
  30.6806110  32.8122200  67.1648490  17.3441160  44.1522140  67.4867460
  16.9595950  43.5115810  68.0850420  17.6553350  44.8558260  68.0562190
  23.4938300  40.9998680  62.9676080  23.8608430  40.5257250  63.7137420
  23.3043360  41.8740250  63.3084420  16.3578790  35.7442370  59.0969550
  16.0725710  35.3798040  59.9348170  16.2957650  35.0122830  58.4832690
  21.2837670  40.0407320  65.2860290  20.9794740  40.9199300  65.5110650
  22.2384130  40.1007110  65.3217730  19.8119460  44.2468310  55.8827140
  19.0381720  43.7065930  55.7225860  20.5414090  43.7274920  55.5444900
  30.5707440  43.2433670  61.6753530  31.2906560  43.7388960  61.2849640
  30.3689260  42.5651560  61.0307400  26.0317380  34.6371630  55.8182920
  25.2181990  34.1384800  55.7428230  25.8379330  35.4769880  55.4019270
  25.9526240  43.3142730  67.5622530  25.8863550  42.3938400  67.3080120
  25.3231380  43.4118170  68.2767170  19.8556860  43.9148690  59.5205950
  20.3735530  43.1116950  59.4662840  19.4040880  43.8527830  60.3622780
  24.7426360  45.1814970  54.7933250  25.0842060  45.9257200  54.2976570
  23.9139070  45.4946090  55.1558080  17.3401400  40.8810060  66.4331650
  16.9816340  41.5463910  67.0204990  17.0455960  40.0493610  66.8044270
  20.5414520  41.3394300  69.3171200  20.2414660  41.4851480  68.4199020
  21.3125760  40.7799590  69.2244590  25.8842970  46.1363300  67.3126330
  25.8987510  45.2044260  67.0945240  25.1768070  46.2223060  67.9516100
  32.0954180  42.7770640  66.6594910  31.3702370  43.3699420  66.4624300
  32.6229640  42.7694180  65.8608280  27.6253770  44.5030810  60.1578760
  27.9777590  43.9058940  59.4980130  26.7416100  44.1775040  60.3287010
  23.7117050  45.2628500  57.5649170  24.3988180  45.8097710  57.9456760
  22.9249470  45.8069230  57.5998780  15.8509450  40.8801320  53.0566250
  16.7204300  41.1626120  53.3402170  15.3599770  41.6937190  52.9415060
  23.0144260  42.2674530  57.1774530  23.4707040  43.0779780  57.4034720
  22.6632470  41.9497670  58.0093020  25.3176870  47.7780870  64.4066830
  25.9619090  47.9840250  65.0840250  25.6806310  47.0169270  63.9537680
  18.9156040  32.6112180  57.6497050  18.7870670  32.6030080  58.5981970
  18.0918060  32.9495270  57.2988060  26.5908950  45.7813220  63.1244280
  27.2331180  45.0806380  63.2376450  27.1158300  46.5611660  62.9441170
  28.3646570  46.5808120  66.3280340  28.7002810  47.1674810  67.0058260
  27.4446910  46.4500830  66.5578130  16.2180700  50.0928700  53.6227880
  16.5778340  50.6918040  52.9685150  16.0773040  50.6388590  54.3962910
  15.9149970  34.3703300  67.1103750  15.2008490  34.5700220  67.7156360
  16.3345010  33.5942870  67.4818550  30.0180920  43.9833780  54.5097580
  29.7302620  44.4446470  55.2975460  30.8133090  43.5231550  54.7781800
  16.2022560  48.3583560  68.0970280  16.3113680  47.4178300  67.9565670
  15.5503120  48.6238310  67.4484010  24.1935150  46.6299450  69.4968400
  23.8732020  45.9108690  70.0414090  23.5193510  47.3054520  69.5704460
  22.2349320  47.4759900  54.4401550  22.2259420  48.2089590  53.8246060
  21.3147680  47.2291480  54.5328510  17.8355960  42.6974790  55.1848310
  17.2283910  43.4373690  55.1943610  18.3105310  42.7874150  54.3586510
  27.4088750  36.8625610  64.8605200  27.7769570  36.0420820  65.1884770
  26.5486950  36.9227500  65.2760850  22.7434810  38.0968500  57.0850640
  22.0350960  38.5654840  57.5264250  23.0279290  37.4390510  57.7195830
  24.3690740  39.5165200  65.0843170  24.8675990  39.9911020  65.7495020
  24.5113690  38.5928720  65.2913200  26.7750240  34.8219160  58.5246430
  26.6518020  34.8405290  57.5755940  27.7234800  34.8698100  58.6444830
  23.8627030  50.0574460  57.7974410  24.1168530  50.0195850  56.8753780
  22.9139510  49.9307790  57.7902660  20.9469830  36.4053580  54.4601350
  21.7960360  36.8423730  54.3941540  20.5801100  36.7173840  55.2873410
  31.5757600  35.7333160  65.9271560  31.0731200  36.4738560  66.2665370
  32.3914260  36.1217160  65.6108350  19.8461250  42.6585940  52.9336880
  20.6124520  42.5467300  53.4962310  19.9235940  41.9623910  52.2813650
  18.5408010  40.0911010  53.6169770  18.6211600  39.1438520  53.7287170
  19.4327760  40.4217890  53.7230430  19.3422720  50.2406400  60.7204310
  20.0785200  49.6921860  60.9912880  19.7263640  51.1062410  60.5810300
  16.2268200  46.3079970  56.5945820  15.3007980  46.5501110  56.5851230
  16.6924630  47.1354230  56.4730570  18.3481000  49.4252470  69.9089890
  19.1493730  49.7464520  70.3225290  17.8332820  49.0648050  70.6309800
  27.1845630  45.5332340  69.8565300  26.5783790  45.5563940  69.1161050
  26.8799740  44.8015380  70.3932550  28.6146000  49.2612630  68.4674710
  29.5667750  49.1770650  68.4174950  28.4674220  49.9254340  69.1408500
  16.0678810  41.9125930  68.8525940  16.5717830  41.3333210  69.4242170
  15.3286230  42.1966160  69.3902310  23.1216750  43.3196920  68.3861460
  22.3562420  43.8881920  68.3016130  23.3032710  43.0273130  67.4929690
  26.2105160  43.6960150  53.0114220  25.6615260  44.1429450  53.6556960
  26.8324420  43.1909400  53.5351890  30.2640100  45.0502250  68.9436480
  31.0049570  45.3878010  68.4403940  29.5012780  45.2194310  68.3906250
  18.1001890  40.0555520  69.7476010  18.1407230  39.7569390  70.6561240
  18.9547390  40.4563130  69.5883530  21.8780280  42.6551070  54.9079520
  22.2996700  42.4890940  55.7510910  22.0031120  41.8451300  54.4134660
  20.0407700  38.6347620  67.7150500  19.5104160  38.1438570  67.0873840
  20.7095770  39.0631820  67.1808430  28.9385760  43.1017080  67.4791690
  29.3526780  43.2562160  68.3282110  28.0036760  43.2272300  67.6417470
  29.4107930  40.4413240  69.4830840  29.9928700  39.6865560  69.3951320
  29.5869700  40.9720680  68.7062320  20.5280000  35.6009990  67.7947790
  20.4336870  34.9830740  67.0698660  19.9477390  36.3276280  67.5677700
  23.2941440  34.1583230  64.8275180  22.8458740  34.1807490  63.9820730
  22.6606640  33.7602250  65.4245480  23.7000990  43.0537560  65.4487620
  24.1189100  43.8970290  65.2763860  22.7809620  43.1909600  65.2194400
  26.0364890  40.7853740  66.8325460  26.1561100  40.1894880  67.5720300
  26.8958890  40.8223430  66.4126760  28.3752790  41.3390930  65.4087970
  27.8488010  41.8633550  64.8053110  28.7184130  41.9718320  66.0397700
  20.7739180  38.7284300  51.8537680  20.5728240  37.8651660  52.2151020
  20.6031230  38.6417660  50.9159280  21.5508410  49.3590570  66.5645350
  21.0129500  50.0836630  66.2454050  21.8042370  48.8820910  65.7742690
  22.8033660  37.3275090  68.0901280  23.3933350  37.0190940  68.7779100
  21.9853900  36.8554840  68.2461180  27.6227090  36.9440900  68.3234300
  26.9342610  36.2822440  68.2584290  28.3433110  36.4979170  68.7682760
  19.5721980  35.8284920  51.8415560  19.8747880  35.8352350  50.9334710
  20.3116570  35.4782780  52.3383220  24.4070620  50.5941780  66.8232000
  24.3329320  51.4976920  67.1304370  23.5049460  50.2753680  66.7954070
  22.7906910  34.7719540  52.8271760  22.4428910  34.0943530  52.2474210
  22.9919680  34.3109050  53.6415150  24.9555950  49.7600290  54.4458360
  25.8506740  50.0985260  54.4677120  24.9873580  49.0379700  53.8182640
  18.5952110  45.1327340  52.6745360  19.0326980  45.6757010  53.3302940
  19.0799840  44.3074290  52.6841700  15.8097910  47.9216370  60.1265620
  16.1400920  47.0537430  59.8944260  16.2388910  48.1274890  60.9570580
  20.4059830  46.2525380  57.7867590  20.1055370  46.1290350  58.6871500
  20.2997320  45.3933970  57.3783320  16.2988120  48.7886960  62.8647250
  15.8619110  48.9687760  63.6971400  16.8665800  49.5461580  62.7228970
  31.9350300  48.2903960  67.1524560  31.3352290  48.3496520  66.4088480
  32.0644200  47.3508940  67.2821410  16.1312550  41.3007190  59.2236130
  15.4761390  41.0318830  58.5795830  16.9690500  41.1911670  58.7738110
  30.6201940  45.0155940  65.2500720  29.8061780  45.4453100  65.5126510
  31.0276140  45.6274350  64.6369770  17.1688480  41.6859760  63.7639470
  17.5361520  41.5987160  64.6435490  16.5999300  40.9226310  63.6646330
  31.9692340  40.1544140  66.7769940  31.7378430  39.9256890  65.8767890
  32.2296890  41.0743690  66.7314830  16.7204480  38.5968850  67.6697890
  15.8260530  38.5635610  68.0091600  17.2602030  38.7955640  68.4349140
  30.4080410  35.3800570  69.5549640  31.2850590  35.3883970  69.9383640
  30.4201250  34.6431410  68.9441990  15.3450630  38.5106120  55.1661460
  14.4414710  38.7736320  54.9913120  15.8291250  38.7817290  54.3861420
  32.0333400  39.3169980  63.9657210  31.0836110  39.2833520  64.0802200
  32.2146410  40.2270090  63.7306980  17.8877840  37.5671660  53.0755840
  18.5969540  37.1454880  52.5903120  17.1717780  37.6346890  52.4439190
  17.5352000  33.6210990  52.1158490  18.2580130  34.1619930  52.4339710
  17.8076520  33.3474410  51.2400030  17.2244190  32.8717180  62.0181110
  17.8720380  32.3214560  61.5776270  17.6446030  33.1260330  62.8396920
  31.1196530  33.0658540  65.3750750  31.7568750  33.6792680  65.7409940
  31.2671420  33.1019200  64.4299980  16.9776190  33.0272850  64.7606430
  16.6291010  33.4836670  65.5264610  16.6463890  32.1329980  64.8428860
  18.5840560  46.1992450  68.9259620  18.5410190  45.8285360  69.8074080
  18.7151570  47.1370020  69.0661440  22.2846590  47.7552040  64.5269340
  22.0437950  48.0226600  63.6399860  23.2249230  47.9257770  64.5820200
  24.4901010  34.2184730  68.2825850  24.4289900  34.8106560  69.0321260
  25.4301390  34.1110690  68.1376110  27.1275570  33.8754790  67.9218140
  27.7415980  34.1934080  67.2599220  27.6725130  33.3903380  68.5414000
  33.5450750  49.7746420  65.3279980  33.0509030  50.1715290  64.6107110
  32.9364040  49.1495630  65.7217260  17.6496830  32.5549050  68.0357200
  18.1979820  32.3737100  67.2723310  17.7152140  31.7643160  68.5713510
  18.4228590  49.1454700  66.0457400  17.8288910  49.0139400  66.7847440
  18.4152430  48.3092840  65.5799500  27.8683610  32.4386930  64.2487430
  26.9943450  32.7722040  64.0460360  27.7594360  31.9660110  65.0739300
  28.7755590  34.6457800  65.6329150  28.4468950  33.8309560  65.2530880
  29.7237890  34.6027610  65.5094840  31.2290200  50.4169840  62.6066720
  30.7693170  51.1685650  62.2324740  30.6002660  49.6976310  62.5481520
  18.0540820  46.5113080  64.9965440  17.3274880  45.8918370  64.9291390
  18.1149970  46.9053690  64.1263520  21.6585920  48.7258080  61.7814850
  22.1750940  48.1145440  61.2563110  22.3083300  49.2286860  62.2725860
  24.3981420  49.6166570  62.6083830  24.6859230  49.3620870  61.7316840
  24.9104640  49.0643930  63.1989400  25.6158430  33.3556770  63.1880340
  24.8330220  33.8302270  63.4677100  25.3221360  32.4511600  63.0793520
  16.3370820  49.8287470  58.2062200  16.1692860  49.1958150  58.9044090
  15.4705330  50.0346870  57.8556390  16.9598840  33.6604250  55.7094060
  17.7178200  33.7733130  55.1358090  16.4976010  34.4973450  55.6637490
  23.5012650  35.7743520  58.6996370  22.6887160  35.4000410  58.3592250
  24.0054290  35.0188600  59.0017560  28.0037630  32.4385970  59.9379440
  28.6067000  33.0106180  60.4127960  27.2630620  33.0025410  59.7153340
  31.1472230  32.8407530  55.2119720  31.3422860  33.7390980  55.4787150
  30.3602100  32.6094610  55.7052670  17.9433520  48.5220700  55.6512340
  17.4181140  48.9028730  54.9474300  17.8678100  49.1471470  56.3722050
  19.3323990  34.1868300  54.2496030  19.8616750  33.3998100  54.1203980
  19.9652310  34.8659490  54.4831560  21.5261830  33.9243440  57.3041420
  20.8964570  33.2230750  57.4711550  20.9866970  34.6847570  57.0874580
  24.4653780  50.5382670  69.9752030  25.3921090  50.3026940  70.0187990
  24.4504210  51.3654670  69.4938060  21.6517390  33.2027420  69.7393910
  21.3701660  33.7061020  68.9754730  22.0337090  32.4049170  69.3736040
  20.5426490  50.4703080  54.5261590  21.2745310  50.1862360  53.9785480
  20.8020160  50.2316360  55.4160970  19.7041280  46.5867810  54.5307920
  19.0750160  47.0552910  55.0793750  19.8189110  45.7417030  54.9654110
  28.2532850  32.6181000  70.3174380  28.1398300  32.9375610  71.2125900
  29.0702590  33.0193510  70.0211660  31.0331340  49.7652530  69.7993070
  31.8256660  49.2701760  69.5919030  31.3264490  50.4442670  70.4068680
  15.7142660  43.7356540  44.0133700  15.7923080  43.8705310  43.0689420
  16.3284340  43.0272430  44.2061820  15.7702180  44.7770710  46.5528160
  15.9333220  44.3076070  45.7347530  16.2354630  44.2694270  47.2177000
  17.9044920  36.3409290  48.1364030  17.5108310  37.1884500  48.3436810
  17.2163320  35.7035660  48.3272670  17.3441160  44.1522140  48.7123970
  16.9595950  43.5115810  49.3106930  17.6553350  44.8558260  49.2818700
  20.5414520  41.3394300  50.5427710  20.2414660  41.4851480  49.6455530
  21.3125760  40.7799590  50.4501100  16.2180700  50.0928700  34.8484390
  16.5778340  50.6918040  34.1941660  16.0773040  50.6388590  35.6219420
  15.9149970  34.3703300  48.3360260  15.2008490  34.5700220  48.9412870
  16.3345010  33.5942870  48.7075060  16.2022560  48.3583560  49.3226790
  16.3113680  47.4178300  49.1822180  15.5503120  48.6238310  48.6740520
  16.2268200  46.3079970  37.8202330  15.3007980  46.5501110  37.8107740
  16.6924630  47.1354230  37.6987080  18.3481000  49.4252470  51.1346400
  19.1493730  49.7464520  51.5481800  17.8332820  49.0648050  51.8566310
  16.0678810  41.9125930  50.0782450  16.5717830  41.3333210  50.6498680
  15.3286230  42.1966160  50.6158820  18.1001890  40.0555520  50.9732520
  18.1407230  39.7569390  51.8817750  18.9547390  40.4563130  50.8140040
  20.5280000  35.6009990  49.0204300  20.4336870  34.9830740  48.2955170
  19.9477390  36.3276280  48.7934210  15.8097910  47.9216370  41.3522130
  16.1400920  47.0537430  41.1200770  16.2388910  48.1274890  42.1827090
  16.2988120  48.7886960  44.0903760  15.8619110  48.9687760  44.9227910
  16.8665800  49.5461580  43.9485480  16.7204480  38.5968850  48.8954400
  15.8260530  38.5635610  49.2348110  17.2602030  38.7955640  49.6605650
  15.3450630  38.5106120  36.3917970  14.4414710  38.7736320  36.2169630
  15.8291250  38.7817290  35.6117930  17.5352000  33.6210990  33.3415000
  18.2580130  34.1619930  33.6596220  17.8076520  33.3474410  32.4656540
  18.5840560  46.1992450  50.1516130  18.5410190  45.8285360  51.0330590
  18.7151570  47.1370020  50.2917950  17.6496830  32.5549050  49.2613710
  18.1979820  32.3737100  48.4979820  17.7152140  31.7643160  49.7970020
  18.4228590  49.1454700  47.2713910  17.8288910  49.0139400  48.0103950
  18.4152430  48.3092840  46.8056010  16.3370820  49.8287470  39.4318710
  16.1692860  49.1958150  40.1300600  15.4705330  50.0346870  39.0812900
  17.9433520  48.5220700  36.8768850  17.4181140  48.9028730  36.1730810
  17.8678100  49.1471470  37.5978560  19.3323990  34.1868300  35.4752540
  19.8616750  33.3998100  35.3460490  19.9652310  34.8659490  35.7088070
  21.6517390  33.2027420  50.9650420  21.3701660  33.7061020  50.2011240
  22.0337090  32.4049170  50.5992550  19.3074870  42.7272300  24.6650660
  18.4759750  42.4721010  25.0647170  19.9155850  42.7983070  25.4008580
  29.3116470  46.8212680  22.5674030  28.8498000  46.0499920  22.8961200
  30.1242020  46.8478750  23.0726480  19.2876130  46.7612390  24.8608680
  19.5904170  45.8710130  24.6818900  20.0319720  47.3182610  24.6330930
  17.7166820  37.6874190  18.4493050  16.8283520  38.0290160  18.3472930
  18.0008010  37.4874510  17.5573880  15.6799830  40.2879840  24.3332750
  16.2515940  39.5202040  24.3336390  15.6801370  40.5868600  23.4239360
  25.5379780  49.1070690  22.1878020  24.9191220  49.5628190  21.6172460
  26.3931560  49.2622150  21.7867720  16.9224700  35.6964200  26.1201680
  16.7427540  34.7989950  26.4004440  16.5204780  36.2436070  26.7948630
  19.8928210  36.2705690  19.4831430  19.9994960  37.1709420  19.7900190
  18.9820570  36.2223660  19.1926080  29.5447320  35.3930500  20.9542330
  30.3656940  34.9027070  20.9967810  29.5781400  35.9828160  21.7074170
  17.5411370  38.1924700  24.7284020  18.2221480  38.4563070  25.3471420
  17.2259420  37.3525570  25.0622030  21.7335940  39.2392060  23.8156610
  22.2414160  39.7373030  24.4561630  22.2649180  38.4627260  23.6395970
  26.4043130  43.9909930  19.5809930  25.7860400  44.4559380  19.0172650
  26.9166380  44.6837410  19.9979440  21.2674890  43.5185800  26.2593530
  20.9344270  44.1454720  26.9014600  21.4441570  44.0447680  25.4795200
  19.6987370  35.5900580  26.0890480  20.0404180  36.4342630  25.7944350
  18.7603180  35.7384320  26.2055820  15.7726330  44.6766460  16.9549560
  15.3954310  45.1653560  16.2234460  16.0299400  45.3491740  17.5856090
  23.3815260  33.0782850  22.4135070  23.6890240  32.5229740  21.6970570
  22.4515960  33.2127310  22.2308060  25.7696020  41.1431680  19.1495190
  24.8425300  41.0769060  19.3783660  25.9220840  42.0811810  19.0350430
  25.7565100  37.4148680  16.1462350  24.8168770  37.5762640  16.2314810
  26.0748360  38.1334360  15.5998340  21.3752660  41.6696420  21.9314920
  20.9709660  40.9573670  21.4360820  21.4615780  41.3249660  22.8202960
  21.8434360  45.3563980  24.0954130  21.5462650  44.7509450  23.4161910
  22.7934180  45.3941290  23.9843490  20.0881280  38.4439630  25.7113960
  20.6395870  38.5534970  24.9367210  20.6024790  38.8177230  26.4269190
  27.9758010  41.9438790  16.6603190  28.4151290  41.1061220  16.5141010
  28.6886430  42.5768190  16.7467330  26.0853390  46.8834860  20.6284430
  26.5249300  47.6259190  20.2139820  26.0240280  47.1261430  21.5523390
  31.5575150  33.1981600  14.9744230  31.2447810  33.2908430  15.8743300
  32.3187620  33.7762630  14.9241660  18.0757290  40.5641400  19.4321570
  17.9554890  41.2903490  18.8202840  17.7658180  39.7944310  18.9549480
  15.7142660  43.7356540  25.2390210  15.7923080  43.8705310  24.2945930
  16.3284340  43.0272430  25.4318330  16.9590290  45.4356730  21.6496390
  16.5518370  45.5771320  20.7949990  17.8503300  45.1516890  21.4467600
  28.7523570  49.8703980  17.9847440  28.5924710  49.5806920  18.8829270
  28.5870280  49.0944110  17.4492670  21.2311950  49.6502510  19.7619060
  21.0554430  48.7338050  19.5486860  20.3767690  50.0089800  20.0016860
  28.4549700  47.3791540  16.5445440  27.7614860  47.3768830  15.8847720
  29.1972560  46.9550860  16.1139610  28.0199630  49.0054250  20.6193930
  28.4756580  48.2243630  20.9332550  28.3592150  49.7161070  21.1635110
  15.7702180  44.7770710  27.7784670  15.9333220  44.3076070  26.9604040
  16.2354630  44.2694270  28.4433510  20.5420950  33.9076470  22.8145240
  20.0989100  34.6886010  22.4829760  21.1005940  34.2306360  23.5216180
  23.6579770  33.5287170  17.6951070  23.0333950  33.5247040  18.4204380
  23.5709890  32.6618130  17.2987040  22.5796850  34.4523800  24.6734840
  22.8769180  35.3586630  24.5926860  23.1282410  33.9642580  24.0594410
  20.3335170  39.0310040  20.5426490  20.1076090  38.8147210  21.4473110
  19.5527700  39.4638500  20.1972460  26.1697800  37.6736950  21.1720420
  26.5627370  37.9909150  20.3589110  26.5314650  36.7948830  21.2864940
  17.9044920  36.3409290  29.3620540  17.5108310  37.1884500  29.5693320
  17.2163320  35.7035660  29.5529180  15.2061970  34.2637750  23.3950620
  14.9175020  34.8340610  24.1075600  15.9507730  33.7842200  23.7581850
  15.3932200  38.2057870  14.6053340  15.3106870  39.1488630  14.7468330
  15.0415260  38.0632780  13.7265690  23.1930330  36.9396900  23.6723690
  23.1966390  36.4986850  22.8228230  24.0881450  37.2614230  23.7795510
  19.0432710  36.8223390  22.6317900  18.7032760  37.2998620  23.3884950
  18.2810030  36.3688510  22.2719000  23.2550480  37.9408980  16.6630450
  23.3763300  37.8995460  17.6116270  22.8698990  38.8033130  16.5077180
  22.2671980  40.2510120  16.0613750  21.6988880  39.8028370  15.4349660
  22.9760980  40.6102900  15.5278900  16.3578790  35.7442370  21.5482570
  16.0725710  35.3798040  22.3861190  16.2957650  35.0122830  20.9345710
  21.2837670  40.0407320  27.7373310  20.9794740  40.9199300  27.9623670
  22.2384130  40.1007110  27.7730750  19.8119460  44.2468310  18.3340160
  19.0381720  43.7065930  18.1738880  20.5414090  43.7274920  17.9957920
  26.0317380  34.6371630  18.2695940  25.2181990  34.1384800  18.1941250
  25.8379330  35.4769880  17.8532290  28.7465770  39.0091280  16.5658100
  29.6345390  39.3208510  16.3909440  28.7170860  38.1363530  16.1738680
  19.8556860  43.9148690  21.9718970  20.3735530  43.1116950  21.9175860
  19.4040880  43.8527830  22.8135800  24.7426360  45.1814970  17.2446270
  25.0842060  45.9257200  16.7489590  23.9139070  45.4946090  17.6071100
  17.3401400  40.8810060  28.8844670  16.9816340  41.5463910  29.4718010
  17.0455960  40.0493610  29.2557290  23.7117050  45.2628500  20.0162190
  24.3988180  45.8097710  20.3969780  22.9249470  45.8069230  20.0511800
  15.8509450  40.8801320  15.5079270  16.7204300  41.1626120  15.7915190
  15.3599770  41.6937190  15.3928080  23.0144260  42.2674530  19.6287550
  23.4707040  43.0779780  19.8547740  22.6632470  41.9497670  20.4606040
  18.9156040  32.6112180  20.1010070  18.7870670  32.6030080  21.0494990
  18.0918060  32.9495270  19.7501080  30.4364670  46.0661840  15.2996440
  30.2102250  45.3492280  15.8921080  30.0460870  45.8174280  14.4618190
  16.2180700  50.0928700  16.0740900  16.5778340  50.6918040  15.4198170
  16.0773040  50.6388590  16.8475930  15.9149970  34.3703300  29.5616770
  15.2008490  34.5700220  30.1669380  16.3345010  33.5942870  29.9331570
  16.2022560  48.3583560  30.5483300  16.3113680  47.4178300  30.4078690
  15.5503120  48.6238310  29.8997030  22.2349320  47.4759900  16.8914570
  22.2259420  48.2089590  16.2759080  21.3147680  47.2291480  16.9841530
  17.8355960  42.6974790  17.6361330  17.2283910  43.4373690  17.6456630
  18.3105310  42.7874150  16.8099530  30.7750780  35.8182550  18.1205780
  30.1463940  35.9228220  17.4064010  30.2802700  36.0379330  18.9099660
  25.2208920  47.5388140  15.5539760  25.3220900  47.3352130  14.6241740
  24.3210660  47.2846420  15.7587540  22.7434810  38.0968500  19.5363660
  22.0350960  38.5654840  19.9777270  23.0279290  37.4390510  20.1708850
  26.7750240  34.8219160  20.9759450  26.6518020  34.8405290  20.0268960
  27.7234800  34.8698100  21.0957850  23.8627030  50.0574460  20.2487430
  24.1168530  50.0195850  19.3266800  22.9139510  49.9307790  20.2415680
  20.9469830  36.4053580  16.9114370  21.7960360  36.8423730  16.8454560
  20.5801100  36.7173840  17.7386430  19.8461250  42.6585940  15.3849900
  20.6124520  42.5467300  15.9475330  19.9235940  41.9623910  14.7326670
  18.5408010  40.0911010  16.0682790  18.6211600  39.1438520  16.1800190
  19.4327760  40.4217890  16.1743450  19.3422720  50.2406400  23.1717330
  20.0785200  49.6921860  23.4425900  19.7263640  51.1062410  23.0323320
  16.2268200  46.3079970  19.0458840  15.3007980  46.5501110  19.0364250
  16.6924630  47.1354230  18.9243590  18.3481000  49.4252470  32.3602910
  19.1493730  49.7464520  32.7738310  17.8332820  49.0648050  33.0822820
  22.4525030  49.4136710  14.9942900  23.2453640  49.7025540  14.5424690
  21.9329380  48.9828880  14.3155380  31.5055200  48.6406840  16.4179640
  31.2196710  48.2271980  15.6033820  31.3074750  49.5694550  16.2980160
  22.9702430  44.6340120  14.8585250  22.8653070  44.0192470  15.5846630
  22.8026650  44.1106010  14.0748260  26.2105160  43.6960150  15.4627240
  25.6615260  44.1429450  16.1069980  26.8324420  43.1909400  15.9864910
  21.8780280  42.6551070  17.3592540  22.2996700  42.4890940  18.2023930
  22.0031120  41.8451300  16.8647680  24.3907920  41.6788680  14.6069640
  24.9113580  40.9637700  14.2410790  25.0376320  42.3174550  14.9070150
  20.7739180  38.7284300  14.3050700  20.5728240  37.8651660  14.6664040
  20.6031230  38.6417660  13.3672300  28.2527490  33.5392530  16.8337580
  28.5329780  32.6960430  17.1897000  27.4793220  33.7715640  17.3476330
  19.5721980  35.8284920  14.2928580  19.8747880  35.8352350  13.3847730
  20.3116570  35.4782780  14.7896240  22.7906910  34.7719540  15.2784780
  22.4428910  34.0943530  14.6987230  22.9919680  34.3109050  16.0928170
  24.9555950  49.7600290  16.8971380  25.8506740  50.0985260  16.9190140
  24.9873580  49.0379700  16.2695660  18.5952110  45.1327340  15.1258380
  19.0326980  45.6757010  15.7815960  19.0799840  44.3074290  15.1354720
  15.8097910  47.9216370  22.5778640  16.1400920  47.0537430  22.3457280
  16.2388910  48.1274890  23.4083600  20.4059830  46.2525380  20.2380610
  20.1055370  46.1290350  21.1384520  20.2997320  45.3933970  19.8296340
  16.2988120  48.7886960  25.3160270  15.8619110  48.9687760  26.1484420
  16.8665800  49.5461580  25.1741990  33.1751750  46.0321780  14.9407290
  32.3444710  46.0998430  15.4114520  33.3523580  46.9225900  14.6374150
  16.1312550  41.3007190  21.6749150  15.4761390  41.0318830  21.0308850
  16.9690500  41.1911670  21.2251130  32.6827380  43.0703630  14.6014010
  32.9576220  43.9782510  14.4733230  32.4938120  43.0066160  15.5376000
  29.0802990  36.0948480  15.8967640  29.4987870  35.9079460  15.0564300
  28.7739050  35.2427530  16.2070570  17.1688480  41.6859760  26.2152490
  17.5361520  41.5987160  27.0948510  16.5999300  40.9226310  26.1159350
  15.3450630  38.5106120  17.6174480  14.4414710  38.7736320  17.4426140
  15.8291250  38.7817290  16.8374440  17.8877840  37.5671660  15.5268860
  18.5969540  37.1454880  15.0416140  17.1717780  37.6346890  14.8952210
  17.5352000  33.6210990  14.5671510  18.2580130  34.1619930  14.8852730
  17.8076520  33.3474410  13.6913050  17.2244190  32.8717180  24.4694130
  17.8720380  32.3214560  24.0289290  17.6446030  33.1260330  25.2909940
  33.6621080  34.9572330  14.6086910  34.5870390  34.8253510  14.4005200
  33.6396870  35.0365150  15.5623360  33.7359570  35.7282990  17.2343620
  32.9411070  35.6628110  17.7636530  33.9402850  36.6633630  17.2228970
  30.6777990  49.7674540  21.2282010  31.2737060  49.4459110  20.5516430
  30.9356140  49.2946360  22.0195280  16.9776190  33.0272850  27.2119450
  16.6291010  33.4836670  27.9777630  16.6463890  32.1329980  27.2941880
  17.6496830  32.5549050  30.4870220  18.1979820  32.3737100  29.7236330
  17.7152140  31.7643160  31.0226530  18.0540820  46.5113080  27.4478460
  17.3274880  45.8918370  27.3804410  18.1149970  46.9053690  26.5776540
  32.0318070  33.6895110  21.6951270  31.9706470  32.7456330  21.5482290
  32.8110100  33.7975200  22.2404730  16.3370820  49.8287470  20.6575220
  16.1692860  49.1958150  21.3557110  15.4705330  50.0346870  20.3069410
  16.9598840  33.6604250  18.1607080  17.7178200  33.7733130  17.5871110
  16.4976010  34.4973450  18.1150510  23.5012650  35.7743520  21.1509390
  22.6887160  35.4000410  20.8105270  24.0054290  35.0188600  21.4530580
  31.1472230  32.8407530  17.6632740  31.3422860  33.7390980  17.9300170
  30.3602100  32.6094610  18.1565690  17.9433520  48.5220700  18.1025360
  17.4181140  48.9028730  17.3987320  17.8678100  49.1471470  18.8235070
  19.3323990  34.1868300  16.7009050  19.8616750  33.3998100  16.5717000
  19.9652310  34.8659490  16.9344580  21.5261830  33.9243440  19.7554440
  20.8964570  33.2230750  19.9224570  20.9866970  34.6847570  19.5387600
  32.6998840  50.0808240  19.4239300  32.8751030  49.3945980  18.7800220
  32.0020410  50.6055290  19.0315970  20.5426490  50.4703080  16.9774610
  21.2745310  50.1862360  16.4298500  20.8020160  50.2316360  17.8673990
  19.7041280  46.5867810  16.9820940  19.0750160  47.0552910  17.5306770
  19.8189110  45.7417030  17.4167130  27.1591000  40.6373470   3.1322140
  27.0785050  39.7228080   2.8613850  26.7455420  41.1340540   2.4261850
  25.2909040  42.4152490   5.0131410  24.5151140  41.9352930   5.3029980
  25.9421970  41.7358140   4.8387570  19.3074870  42.7272300   5.8907170
  18.4759750  42.4721010   6.2903680  19.9155850  42.7983070   6.6265090
  29.3116470  46.8212680   3.7930540  28.8498000  46.0499920   4.1217710
  30.1242020  46.8478750   4.2982990  19.2876130  46.7612390   6.0865190
  19.5904170  45.8710130   5.9075410  20.0319720  47.3182610   5.8587440
  15.6799830  40.2879840   5.5589260  16.2515940  39.5202040   5.5592900
  15.6801370  40.5868600   4.6495870  25.5379780  49.1070690   3.4134530
  24.9191220  49.5628190   2.8428970  26.3931560  49.2622150   3.0124230
  24.7318030  45.0909680   5.0201570  24.6626310  44.1499620   4.8590700
  25.4937890  45.1811090   5.5924140  16.9224700  35.6964200   7.3458190
  16.7427540  34.7989950   7.6260950  16.5204780  36.2436070   8.0205140
  25.7623200  37.8980060   5.2470500  26.1388020  37.0251940   5.1344170
  25.6642710  38.2338760   4.3560940  29.5447320  35.3930500   2.1798840
  30.3656940  34.9027070   2.2224320  29.5781400  35.9828160   2.9330680
  17.5411370  38.1924700   5.9540530  18.2221480  38.4563070   6.5727930
  17.2259420  37.3525570   6.2878540  21.7335940  39.2392060   5.0413120
  22.2414160  39.7373030   5.6818140  22.2649180  38.4627260   4.8652480
  33.8346870  37.4097250   8.7442470  33.1299040  37.7978960   8.2257580
  34.1004790  38.1047540   9.3463400  20.0172040  33.8790620   9.3076540
  20.0190480  34.3963010   8.5022440  19.1876350  33.4020800   9.2846470
  21.2674890  43.5185800   7.4850040  20.9344270  44.1454720   8.1271110
  21.4441570  44.0447680   6.7051710  29.7808800  37.3330880   4.9526380
  29.0764370  37.6215770   5.5329490  30.1420960  38.1430990   4.5925940
  19.6987370  35.5900580   7.3146990  20.0404180  36.4342630   7.0200860
  18.7603180  35.7384320   7.4312330  20.4793990  45.4866600   9.2999220
  21.0967990  46.1617680   9.0183670  19.6187110  45.8954580   9.2086720
  31.3971580  46.9506010   7.2153860  30.7135100  47.6205120   7.2070530
  31.9365870  47.1486660   6.4498720  32.8495720  36.7785670   5.3435590
  31.9020630  36.8124650   5.4751020  33.1745710  37.5924620   5.7284950
  23.3815260  33.0782850   3.6391580  23.6890240  32.5229740   2.9227080
  22.4515960  33.2127310   3.4564570  28.9330320  48.7950140   5.9299040
  28.9457480  48.3912430   5.0621300  28.3805540  49.5697430   5.8260470
  28.3315760  43.6979980   7.2581650  28.7484550  43.4840090   6.4235110
  29.0555580  43.9552770   7.8290270  32.2777860  42.0967200   7.3497890
  31.4496490  42.1660290   6.8748020  32.8728340  42.6821510   6.8813720
  29.2419870  38.8836520   8.2952760  28.8291050  39.7090230   8.5492750
  28.5095820  38.2981560   8.1029120  21.3752660  41.6696420   3.1571430
  20.9709660  40.9573670   2.6617330  21.4615780  41.3249660   4.0459470
  21.8434360  45.3563980   5.3210640  21.5462650  44.7509450   4.6418420
  22.7934180  45.3941290   5.2100000  20.0881280  38.4439630   6.9370470
  20.6395870  38.5534970   6.1623720  20.6024790  38.8177230   7.6525700
  29.9319970  48.9295850   8.9833740  29.4550530  49.7368040   8.7906350
  29.2481760  48.2774180   9.1359950  20.9352790  45.0945670  11.9718440
  20.0381320  45.3185640  12.2191840  20.9605660  45.2180610  11.0229840
  19.7624010  41.9658990  10.5475810  19.6231780  42.8381790  10.9163210
  18.8805370  41.6231800  10.4023750  26.0853390  46.8834860   1.8540940
  26.5249300  47.6259190   1.4396330  26.0240280  47.1261430   2.7779900
  21.5604360  47.9080690  12.7560960  21.5319790  48.3123640  11.8889390
  21.3969330  46.9791050  12.5932560  33.5119180  48.6907790  14.0525130
  33.9878900  49.1690680  14.7314210  34.1326340  48.6225280  13.3270630
  15.7142660  43.7356540   6.4646720  15.7923080  43.8705310   5.5202440
  16.3284340  43.0272430   6.6574840  16.9590290  45.4356730   2.8752900
  16.5518370  45.5771320   2.0206500  17.8503300  45.1516890   2.6724110
  32.9152430  45.8820640  11.2125140  33.0415490  45.6432520  10.2942320
  32.9573810  45.0505180  11.6847220  26.7769170  49.5848640   9.7819950
  27.2913840  49.4956650  10.5842380  25.9338250  49.9308340  10.0747860
  28.0199630  49.0054250   1.8450440  28.4756580  48.2243630   2.1589060
  28.3592150  49.7161070   2.3891620  32.7676440  37.9353100  12.1774880
  32.1520710  38.4432770  11.6490340  32.4472860  37.0351430  12.1200820
  15.7702180  44.7770710   9.0041180  15.9333220  44.3076070   8.1860550
  16.2354630  44.2694270   9.6690020  20.5420950  33.9076470   4.0401750
  20.0989100  34.6886010   3.7086270  21.1005940  34.2306360   4.7472690
  24.8290760  36.7744990   9.6437070  24.3670130  36.9828010  10.4557010
  24.4268870  35.9604340   9.3407740  29.8295270  37.9953940  10.7733730
  28.9788860  37.6959690  11.0942800  29.6697060  38.2395950   9.8617550
  26.9244980  39.4955690  12.8732520  27.2498390  38.6619440  12.5334750
  27.7125310  40.0184210  13.0210850  22.5796850  34.4523800   5.8991350
  22.8769180  35.3586630   5.8183370  23.1282410  33.9642580   5.2850920
  20.3335170  39.0310040   1.7683000  20.1076090  38.8147210   2.6729620
  19.5527700  39.4638500   1.4228970  22.7734380  39.9295620  12.4343270
  22.6777980  38.9890350  12.2843670  23.6166360  40.1510690  12.0391340
  26.1697800  37.6736950   2.3976930  26.5627370  37.9909150   1.5845620
  26.5314650  36.7948830   2.5121450  17.9044920  36.3409290  10.5877050
  17.5108310  37.1884500  10.7949830  17.2163320  35.7035660  10.7785690
  24.4789970  36.4244260  13.6573790  23.7888290  36.2316460  14.2919880
  25.2222270  36.7078900  14.1898090  15.2061970  34.2637750   4.6207130
  14.9175020  34.8340610   5.3332110  15.9507730  33.7842200   4.9838360
  26.7552940  40.2642700   6.4927710  26.0234060  40.7729510   6.8417810
  26.3577280  39.4472680   6.1916490  23.1930330  36.9396900   4.8980200
  23.1966390  36.4986850   4.0484740  24.0881450  37.2614230   5.0052020
  19.0432710  36.8223390   3.8574410  18.7032760  37.2998620   4.6141460
  18.2810030  36.3688510   3.4975510  27.2178850  35.7176380   5.9050650
  27.2351590  36.1685030   6.7492500  26.9694430  34.8182020   6.1184090
  30.6449600  33.1308560  11.7437030  30.9695370  32.3998220  12.2695010
  30.6806110  32.8122200  10.8418020  17.3441160  44.1522140  11.1636990
  16.9595950  43.5115810  11.7619950  17.6553350  44.8558260  11.7331720
  23.4938300  40.9998680   6.6445610  23.8608430  40.5257250   7.3906950
  23.3043360  41.8740250   6.9853950  16.3578790  35.7442370   2.7739080
  16.0725710  35.3798040   3.6117700  16.2957650  35.0122830   2.1602220
  21.2837670  40.0407320   8.9629820  20.9794740  40.9199300   9.1880180
  22.2384130  40.1007110   8.9987260  30.5707440  43.2433670   5.3523060
  31.2906560  43.7388960   4.9619170  30.3689260  42.5651560   4.7076930
  25.9526240  43.3142730  11.2392060  25.8863550  42.3938400  10.9849650
  25.3231380  43.4118170  11.9536700  19.8556860  43.9148690   3.1975480
  20.3735530  43.1116950   3.1432370  19.4040880  43.8527830   4.0392310
  17.3401400  40.8810060  10.1101180  16.9816340  41.5463910  10.6974520
  17.0455960  40.0493610  10.4813800  20.5414520  41.3394300  12.9940730
  20.2414660  41.4851480  12.0968550  21.3125760  40.7799590  12.9014120
  25.8842970  46.1363300  10.9895860  25.8987510  45.2044260  10.7714770
  25.1768070  46.2223060  11.6285630  32.0954180  42.7770640  10.3364440
  31.3702370  43.3699420  10.1393830  32.6229640  42.7694180   9.5377810
  27.6253770  44.5030810   3.8348290  27.9777590  43.9058940   3.1749660
  26.7416100  44.1775040   4.0056540  25.3176870  47.7780870   8.0836360
  25.9619090  47.9840250   8.7609780  25.6806310  47.0169270   7.6307210
  26.5908950  45.7813220   6.8013810  27.2331180  45.0806380   6.9145980
  27.1158300  46.5611660   6.6210700  28.3646570  46.5808120  10.0049870
  28.7002810  47.1674810  10.6827790  27.4446910  46.4500830  10.2347660
  15.9149970  34.3703300  10.7873280  15.2008490  34.5700220  11.3925890
  16.3345010  33.5942870  11.1588080  16.2022560  48.3583560  11.7739810
  16.3113680  47.4178300  11.6335200  15.5503120  48.6238310  11.1253540
  24.1935150  46.6299450  13.1737930  23.8732020  45.9108690  13.7183620
  23.5193510  47.3054520  13.2473990  27.4088750  36.8625610   8.5374730
  27.7769570  36.0420820   8.8654300  26.5486950  36.9227500   8.9530380
  24.3690740  39.5165200   8.7612700  24.8675990  39.9911020   9.4264550
  24.5113690  38.5928720   8.9682730  31.5757600  35.7333160   9.6041090
  31.0731200  36.4738560   9.9434900  32.3914260  36.1217160   9.2877880
  29.8679610  40.9766340   3.0502450  28.9269750  40.9916570   3.2250140
  30.1823680  40.1902300   3.4962750  31.8705190  48.1475190   4.7256710
  31.9952610  48.9706360   5.1980520  32.7370750  47.9365920   4.3780860
  19.3422720  50.2406400   4.3973840  20.0785200  49.6921860   4.6682410
  19.7263640  51.1062410   4.2579830  18.3481000  49.4252470  13.5859420
  19.1493730  49.7464520  13.9994820  17.8332820  49.0648050  14.3079330
  27.1845630  45.5332340  13.5334830  26.5783790  45.5563940  12.7930580
  26.8799740  44.8015380  14.0702080  28.6146000  49.2612630  12.1444240
  29.5667750  49.1770650  12.0944480  28.4674220  49.9254340  12.8178030
  16.0678810  41.9125930  12.5295470  16.5717830  41.3333210  13.1011700
  15.3286230  42.1966160  13.0671840  23.1216750  43.3196920  12.0630990
  22.3562420  43.8881920  11.9785660  23.3032710  43.0273130  11.1699220
  30.2640100  45.0502250  12.6206010  31.0049570  45.3878010  12.1173470
  29.5012780  45.2194310  12.0675780  18.1001890  40.0555520  13.4245540
  18.1407230  39.7569390  14.3330770  18.9547390  40.4563130  13.2653060
  20.0407700  38.6347620  11.3920030  19.5104160  38.1438570  10.7643370
  20.7095770  39.0631820  10.8577960  28.9385760  43.1017080  11.1561220
  29.3526780  43.2562160  12.0051640  28.0036760  43.2272300  11.3187000
  29.4107930  40.4413240  13.1600370  29.9928700  39.6865560  13.0720850
  29.5869700  40.9720680  12.3831850  20.5280000  35.6009990  11.4717320
  20.4336870  34.9830740  10.7468190  19.9477390  36.3276280  11.2447230
  23.2941440  34.1583230   8.5044710  22.8458740  34.1807490   7.6590260
  22.6606640  33.7602250   9.1015010  23.7000990  43.0537560   9.1257150
  24.1189100  43.8970290   8.9533390  22.7809620  43.1909600   8.8963930
  26.0364890  40.7853740  10.5094990  26.1561100  40.1894880  11.2489830
  26.8958890  40.8223430  10.0896290  28.3752790  41.3390930   9.0857500
  27.8488010  41.8633550   8.4822640  28.7184130  41.9718320   9.7167230
  21.5508410  49.3590570  10.2414880  21.0129500  50.0836630   9.9223580
  21.8042370  48.8820910   9.4512220  22.8033660  37.3275090  11.7670810
  23.3933350  37.0190940  12.4548630  21.9853900  36.8554840  11.9230710
  27.6227090  36.9440900  12.0003830  26.9342610  36.2822440  11.9353820
  28.3433110  36.4979170  12.4452290  24.4070620  50.5941780  10.5001530
  24.3329320  51.4976920  10.8073900  23.5049460  50.2753680  10.4723600
  15.8097910  47.9216370   3.8035150  16.1400920  47.0537430   3.5713790
  16.2388910  48.1274890   4.6340110  16.2988120  48.7886960   6.5416780
  15.8619110  48.9687760   7.3740930  16.8665800  49.5461580   6.3998500
  31.9350300  48.2903960  10.8294090  31.3352290  48.3496520  10.0858010
  32.0644200  47.3508940  10.9590940  16.1312550  41.3007190   2.9005660
  15.4761390  41.0318830   2.2565360  16.9690500  41.1911670   2.4507640
  33.6368180  43.6319360   3.5139930  34.0077010  42.8486680   3.1075900
  34.2770110  44.3208460   3.3357230  30.6201940  45.0155940   8.9270250
  29.8061780  45.4453100   9.1896040  31.0276140  45.6274350   8.3139300
  17.1688480  41.6859760   7.4409000  17.5361520  41.5987160   8.3205020
  16.5999300  40.9226310   7.3415860  31.9692340  40.1544140  10.4539470
  31.7378430  39.9256890   9.5537420  32.2296890  41.0743690  10.4084360
  16.7204480  38.5968850  11.3467420  15.8260530  38.5635610  11.6861130
  17.2602030  38.7955640  12.1118670  30.4080410  35.3800570  13.2319170
  31.2850590  35.3883970  13.6153170  30.4201250  34.6431410  12.6211520
  31.8543680  39.2330110   4.1207190  32.3781160  38.7392760   3.4897360
  32.4403100  39.3680470   4.8654760  32.0333400  39.3169980   7.6426740
  31.0836110  39.2833520   7.7571730  32.2146410  40.2270090   7.4076510
  17.2244190  32.8717180   5.6950640  17.8720380  32.3214560   5.2545800
  17.6446030  33.1260330   6.5166450  32.7730810  37.1264410   2.5937280
  32.6630090  36.9720450   3.5319550  33.5338400  36.5985350   2.3512690
  31.1196530  33.0658540   9.0520280  31.7568750  33.6792680   9.4179470
  31.2671420  33.1019200   8.1069510  30.6777990  49.7674540   2.4538520
  31.2737060  49.4459110   1.7772940  30.9356140  49.2946360   3.2451790
  16.9776190  33.0272850   8.4375960  16.6291010  33.4836670   9.2034140
  16.6463890  32.1329980   8.5198390  18.5840560  46.1992450  12.6029150
  18.5410190  45.8285360  13.4843610  18.7151570  47.1370020  12.7430970
  22.2846590  47.7552040   8.2038870  22.0437950  48.0226600   7.3169390
  23.2249230  47.9257770   8.2589730  24.4901010  34.2184730  11.9595380
  24.4289900  34.8106560  12.7090790  25.4301390  34.1110690  11.8145640
  27.1275570  33.8754790  11.5987670  27.7415980  34.1934080  10.9368750
  27.6725130  33.3903380  12.2183530  33.5450750  49.7746420   9.0049510
  33.0509030  50.1715290   8.2876640  32.9364040  49.1495630   9.3986790
  17.6496830  32.5549050  11.7126730  18.1979820  32.3737100  10.9492840
  17.7152140  31.7643160  12.2483040  18.4228590  49.1454700   9.7226930
  17.8288910  49.0139400  10.4616970  18.4152430  48.3092840   9.2569030
  27.8683610  32.4386930   7.9256960  26.9943450  32.7722040   7.7229890
  27.7594360  31.9660110   8.7508830  28.7755590  34.6457800   9.3098680
  28.4468950  33.8309560   8.9300410  29.7237890  34.6027610   9.1864370
  31.2290200  50.4169840   6.2836250  30.7693170  51.1685650   5.9094270
  30.6002660  49.6976310   6.2251050  18.0540820  46.5113080   8.6734970
  17.3274880  45.8918370   8.6060920  18.1149970  46.9053690   7.8033050
  21.6585920  48.7258080   5.4584380  22.1750940  48.1145440   4.9332640
  22.3083300  49.2286860   5.9495390  24.3981420  49.6166570   6.2853360
  24.6859230  49.3620870   5.4086370  24.9104640  49.0643930   6.8758930
  25.6158430  33.3556770   6.8649870  24.8330220  33.8302270   7.1446630
  25.3221360  32.4511600   6.7563050  30.1679500  34.0579870   4.9098960
  30.6087590  34.0024970   4.0620560  29.8987090  34.9737880   4.9809140
  32.0318070  33.6895110   2.9207780  31.9706470  32.7456330   2.7738800
  32.8110100  33.7975200   3.4661240  16.3370820  49.8287470   1.8831730
  16.1692860  49.1958150   2.5813620  15.4705330  50.0346870   1.5325920
  23.5012650  35.7743520   2.3765900  22.6887160  35.4000410   2.0361780
  24.0054290  35.0188600   2.6787090  28.0037630  32.4385970   3.6148970
  28.6067000  33.0106180   4.0897490  27.2630620  33.0025410   3.3922870
  24.4653780  50.5382670  13.6521560  25.3921090  50.3026940  13.6957520
  24.4504210  51.3654670  13.1707590  21.6517390  33.2027420  13.4163440
  21.3701660  33.7061020  12.6524260  22.0337090  32.4049170  13.0505570
  28.2532850  32.6181000  13.9943910  28.1398300  32.9375610  14.8895430
  29.0702590  33.0193510  13.6981190  31.0331340  49.7652530  13.4762600
  31.8256660  49.2701760  13.2688560  31.3264490  50.4442670  14.0838210
  27.1591000  21.8629980  78.2296100  27.0785050  20.9484590  77.9587810
  26.7455420  22.3597050  77.5235810  25.2909040  23.6409000  80.1105370
  24.5151140  23.1609440  80.4003940  25.9421970  22.9614650  79.9361530
  19.3074870  23.9528810  80.9881130  18.4759750  23.6977520  81.3877640
  19.9155850  24.0239580  81.7239050  29.3116470  28.0469190  78.8904500
  28.8498000  27.2756430  79.2191670  30.1242020  28.0735260  79.3956950
  19.2876130  27.9868900  81.1839150  19.5904170  27.0966640  81.0049370
  20.0319720  28.5439120  80.9561400  17.7166820  18.9130700  74.7723520
  16.8283520  19.2546670  74.6703400  18.0008010  18.7131020  73.8804350
  15.6799830  21.5136350  80.6563220  16.2515940  20.7458550  80.6566860
  15.6801370  21.8125110  79.7469830  25.5379780  30.3327200  78.5108490
  24.9191220  30.7884700  77.9402930  26.3931560  30.4878660  78.1098190
  24.7318030  26.3166190  80.1175530  24.6626310  25.3756130  79.9564660
  25.4937890  26.4067600  80.6898100  16.9224700  16.9220710  82.4432150
  16.7427540  16.0246460  82.7234910  16.5204780  17.4692580  83.1179100
  25.7623200  19.1236570  80.3444460  26.1388020  18.2508450  80.2318130
  25.6642710  19.4595270  79.4534900  19.8928210  17.4962200  75.8061900
  19.9994960  18.3965930  76.1130660  18.9820570  17.4480170  75.5156550
  29.5447320  16.6187010  77.2772800  30.3656940  16.1283580  77.3198280
  29.5781400  17.2084670  78.0304640  17.5411370  19.4181210  81.0514490
  18.2221480  19.6819580  81.6701890  17.2259420  18.5782080  81.3852500
  21.7335940  20.4648570  80.1387080  22.2414160  20.9629540  80.7792100
  22.2649180  19.6883770  79.9626440  26.4043130  25.2166440  75.9040400
  25.7860400  25.6815890  75.3403120  26.9166380  25.9093920  76.3209910
  21.2674890  24.7442310  82.5824000  20.9344270  25.3711230  83.2245070
  21.4441570  25.2704190  81.8025670  29.7808800  18.5587390  80.0500340
  29.0764370  18.8472280  80.6303450  30.1420960  19.3687500  79.6899900
  19.6987370  16.8157090  82.4120950  20.0404180  17.6599140  82.1174820
  18.7603180  16.9640830  82.5286290  15.7726330  25.9022970  73.2780030
  15.3954310  26.3910070  72.5464930  16.0299400  26.5748250  73.9086560
  31.3971580  28.1762520  82.3127820  30.7135100  28.8461630  82.3044490
  31.9365870  28.3743170  81.5472680  32.8495720  18.0042180  80.4409550
  31.9020630  18.0381160  80.5724980  33.1745710  18.8181130  80.8258910
  23.3815260  14.3039360  78.7365540  23.6890240  13.7486250  78.0201040
  22.4515960  14.4383820  78.5538530  28.9330320  30.0206650  81.0273000
  28.9457480  29.6168940  80.1595260  28.3805540  30.7953940  80.9234430
  30.2275740  26.7422870  76.1163170  30.1172070  25.7997200  76.2412590
  30.2243990  27.1038510  77.0025930  28.3315760  24.9236490  82.3555610
  28.7484550  24.7096600  81.5209070  29.0555580  25.1809280  82.9264230
  25.7696020  22.3688190  75.4725660  24.8425300  22.3025570  75.7014130
  25.9220840  23.3068320  75.3580900  25.7565100  18.6405190  72.4692820
  24.8168770  18.8019150  72.5545280  26.0748360  19.3590870  71.9228810
  32.2777860  23.3223710  82.4471850  31.4496490  23.3916800  81.9721980
  32.8728340  23.9078020  81.9787680  29.7993310  23.9308490  75.9760910
  29.1805730  23.5928040  75.3287210  29.7817760  23.2868250  76.6840100
  21.3752660  22.8952930  78.2545390  20.9709660  22.1830180  77.7591290
  21.4615780  22.5506170  79.1433430  21.8434360  26.5820490  80.4184600
  21.5462650  25.9765960  79.7392380  22.7934180  26.6197800  80.3073960
  20.0881280  19.6696140  82.0344430  20.6395870  19.7791480  81.2597680
  20.6024790  20.0433740  82.7499660  27.9758010  23.1695300  72.9833660
  28.4151290  22.3317730  72.8371480  28.6886430  23.8024700  73.0697800
  26.0853390  28.1091370  76.9514900  26.5249300  28.8515700  76.5370290
  26.0240280  28.3517940  77.8753860  31.5575150  14.4238110  71.2974700
  31.2447810  14.5164940  72.1973770  32.3187620  15.0019140  71.2472130
  18.0757290  21.7897910  75.7552040  17.9554890  22.5160000  75.1433310
  17.7658180  21.0200820  75.2779950  15.7142660  24.9613050  81.5620680
  15.7923080  25.0961820  80.6176400  16.3284340  24.2528940  81.7548800
  16.9590290  26.6613240  77.9726860  16.5518370  26.8027830  77.1180460
  17.8503300  26.3773400  77.7698070  28.7523570  31.0960490  74.3077910
  28.5924710  30.8063430  75.2059740  28.5870280  30.3200620  73.7723140
  21.2311950  30.8759020  76.0849530  21.0554430  29.9594560  75.8717330
  20.3767690  31.2346310  76.3247330  28.4549700  28.6048050  72.8675910
  27.7614860  28.6025340  72.2078190  29.1972560  28.1807370  72.4370080
  28.0199630  30.2310760  76.9424400  28.4756580  29.4500140  77.2563020
  28.3592150  30.9417580  77.4865580  20.5420950  15.1332980  79.1375710
  20.0989100  15.9142520  78.8060230  21.1005940  15.4562870  79.8446650
  23.6579770  14.7543680  74.0181540  23.0333950  14.7503550  74.7434850
  23.5709890  13.8874640  73.6217510  22.5796850  15.6780310  80.9965310
  22.8769180  16.5843140  80.9157330  23.1282410  15.1899090  80.3824880
  20.3335170  20.2566550  76.8656960  20.1076090  20.0403720  77.7703580
  19.5527700  20.6895010  76.5202930  27.5632930  20.2629920  75.4647610
  26.9641820  20.9865720  75.2811230  28.1112540  20.2006700  74.6824060
  26.1697800  18.8993460  77.4950890  26.5627370  19.2165660  76.6819580
  26.5314650  18.0205340  77.6095410  15.2061970  15.4894260  79.7181090
  14.9175020  16.0597120  80.4306070  15.9507730  15.0098710  80.0812320
  15.3932200  19.4314380  70.9283810  15.3106870  20.3745140  71.0698800
  15.0415260  19.2889290  70.0496160  26.7552940  21.4899210  81.5901670
  26.0234060  21.9986020  81.9391770  26.3577280  20.6729190  81.2890450
  23.1930330  18.1653410  79.9954160  23.1966390  17.7243360  79.1458700
  24.0881450  18.4870740  80.1025980  19.0432710  18.0479900  78.9548370
  18.7032760  18.5255130  79.7115420  18.2810030  17.5945020  78.5949470
  23.2550480  19.1665490  72.9860920  23.3763300  19.1251970  73.9346740
  22.8698990  20.0289640  72.8307650  27.2178850  16.9432890  81.0024610
  27.2351590  17.3941540  81.8466460  26.9694430  16.0438530  81.2158050
  22.2671980  21.4766630  72.3844220  21.6988880  21.0284880  71.7580130
  22.9760980  21.8359410  71.8509370  23.4938300  22.2255190  81.7419570
  23.8608430  21.7513760  82.4880910  23.3043360  23.0996760  82.0827910
  16.3578790  16.9698880  77.8713040  16.0725710  16.6054550  78.7091660
  16.2957650  16.2379340  77.2576180  19.8119460  25.4724820  74.6570630
  19.0381720  24.9322440  74.4969350  20.5414090  24.9531430  74.3188390
  30.5707440  24.4690180  80.4497020  31.2906560  24.9645470  80.0593130
  30.3689260  23.7908070  79.8050890  26.0317380  15.8628140  74.5926410
  25.2181990  15.3641310  74.5171720  25.8379330  16.7026390  74.1762760
  28.7465770  20.2347790  72.8888570  29.6345390  20.5465020  72.7139910
  28.7170860  19.3620040  72.4969150  19.8556860  25.1405200  78.2949440
  20.3735530  24.3373460  78.2406330  19.4040880  25.0784340  79.1366270
  24.7426360  26.4071480  73.5676740  25.0842060  27.1513710  73.0720060
  23.9139070  26.7202600  73.9301570  31.0180040  21.5459630  72.3568430
  30.9343760  21.9773850  71.5064870  31.7374230  22.0057980  72.7895250
  32.0467290  28.4001890  75.0850560  31.4043450  27.7457510  75.3594280
  31.6597950  28.8056980  74.3091230  27.6253770  25.7287320  78.9322250
  27.9777590  25.1315450  78.2723620  26.7416100  25.4031550  79.1030500
  23.7117050  26.4885010  76.3392660  24.3988180  27.0354220  76.7200250
  22.9249470  27.0325740  76.3742270  15.8509450  22.1057830  71.8309740
  16.7204300  22.3882630  72.1145660  15.3599770  22.9193700  71.7158550
  23.0144260  23.4931040  75.9518020  23.4707040  24.3036290  76.1778210
  22.6632470  23.1754180  76.7836510  18.9156040  13.8368690  76.4240540
  18.7870670  13.8286590  77.3725460  18.0918060  14.1751780  76.0731550
  26.5908950  27.0069730  81.8987770  27.2331180  26.3062890  82.0119940
  27.1158300  27.7868170  81.7184660  30.4364670  27.2918350  71.6226910
  30.2102250  26.5748790  72.2151550  30.0460870  27.0430790  70.7848660
  16.2180700  31.3185210  72.3971370  16.5778340  31.9174550  71.7428640
  16.0773040  31.8645100  73.1706400  30.0180920  25.2090290  73.2841070
  29.7302620  25.6702980  74.0718950  30.8133090  24.7488060  73.5525290
  22.2349320  28.7016410  73.2145040  22.2259420  29.4346100  72.5989550
  21.3147680  28.4547990  73.3072000  17.8355960  23.9231300  73.9591800
  17.2283910  24.6630200  73.9687100  18.3105310  24.0130660  73.1330000
  30.7750780  17.0439060  74.4436250  30.1463940  17.1484730  73.7294480
  30.2802700  17.2635840  75.2330130  25.2208920  28.7644650  71.8770230
  25.3220900  28.5608640  70.9472210  24.3210660  28.5102930  72.0818010
  22.7434810  19.3225010  75.8594130  22.0350960  19.7911350  76.3007740
  23.0279290  18.6647020  76.4939320  26.7750240  16.0475670  77.2989920
  26.6518020  16.0661800  76.3499430  27.7234800  16.0954610  77.4188320
  23.8627030  31.2830970  76.5717900  24.1168530  31.2452360  75.6497270
  22.9139510  31.1564300  76.5646150  20.9469830  17.6310090  73.2344840
  21.7960360  18.0680240  73.1685030  20.5801100  17.9430350  74.0616900
  29.8679610  22.2022850  78.1476410  28.9269750  22.2173080  78.3224100
  30.1823680  21.4158810  78.5936710  19.8461250  23.8842450  71.7080370
  20.6124520  23.7723810  72.2705800  19.9235940  23.1880420  71.0557140
  18.5408010  21.3167520  72.3913260  18.6211600  20.3695030  72.5030660
  19.4327760  21.6474400  72.4973920  31.8705190  29.3731700  79.8230670
  31.9952610  30.1962870  80.2954480  32.7370750  29.1622430  79.4754820
  19.3422720  31.4662910  79.4947800  20.0785200  30.9178370  79.7656370
  19.7263640  32.3318920  79.3553790  16.2268200  27.5336480  75.3689310
  15.3007980  27.7757620  75.3594720  16.6924630  28.3610740  75.2474060
  22.4525030  30.6393220  71.3173370  23.2453640  30.9282050  70.8655160
  21.9329380  30.2085390  70.6385850  31.5055200  29.8663350  72.7410110
  31.2196710  29.4528490  71.9264290  31.3074750  30.7951060  72.6210630
  22.9702430  25.8596630  71.1815720  22.8653070  25.2448980  71.9077100
  22.8026650  25.3362520  70.3978730  26.2105160  24.9216660  71.7857710
  25.6615260  25.3685960  72.4300450  26.8324420  24.4165910  72.3095380
  21.8780280  23.8807580  73.6823010  22.2996700  23.7147450  74.5254400
  22.0031120  23.0707810  73.1878150  24.3907920  22.9045190  70.9300110
  24.9113580  22.1894210  70.5641260  25.0376320  23.5431060  71.2300620
  20.7739180  19.9540810  70.6281170  20.5728240  19.0908170  70.9894510
  20.6031230  19.8674170  69.6902770  28.2527490  14.7649040  73.1568050
  28.5329780  13.9216940  73.5127470  27.4793220  14.9972150  73.6706800
  19.5721980  17.0541430  70.6159050  19.8747880  17.0608860  69.7078200
  20.3116570  16.7039290  71.1126710  22.7906910  15.9976050  71.6015250
  22.4428910  15.3200040  71.0217700  22.9919680  15.5365560  72.4158640
  24.9555950  30.9856800  73.2201850  25.8506740  31.3241770  73.2420610
  24.9873580  30.2636210  72.5926130  18.5952110  26.3583850  71.4488850
  19.0326980  26.9013520  72.1046430  19.0799840  25.5330800  71.4585190
  15.8097910  29.1472880  78.9009110  16.1400920  28.2793940  78.6687750
  16.2388910  29.3531400  79.7314070  20.4059830  27.4781890  76.5611080
  20.1055370  27.3546860  77.4614990  20.2997320  26.6190480  76.1526810
  16.2988120  30.0143470  81.6390740  15.8619110  30.1944270  82.4714890
  16.8665800  30.7718090  81.4972460  33.1751750  27.2578290  71.2637760
  32.3444710  27.3254940  71.7344990  33.3523580  28.1482410  70.9604620
  32.6308210  24.0025770  73.7671960  33.3927120  24.5722420  73.8731650
  32.6462580  23.4352970  74.5380270  16.1312550  22.5263700  77.9979620
  15.4761390  22.2575340  77.3539320  16.9690500  22.4168180  77.5481600
  33.6368180  24.8575870  78.6113890  34.0077010  24.0743190  78.2049860
  34.2770110  25.5464970  78.4331190  32.6827380  24.2960140  70.9244480
  32.9576220  25.2039020  70.7963700  32.4938120  24.2322670  71.8606470
  29.0802990  17.3204990  72.2198110  29.4987870  17.1335970  71.3794770
  28.7739050  16.4684040  72.5301040  32.5792720  22.2329130  75.9173910
  32.2036320  21.4657060  75.4855200  31.8495840  22.6151830  76.4048840
  15.3450630  19.7362630  73.9404950  14.4414710  19.9992830  73.7656610
  15.8291250  20.0073800  73.1604910  31.8543680  20.4586620  79.2181150
  32.3781160  19.9649270  78.5871320  32.4403100  20.5936980  79.9628720
  32.0333400  20.5426490  82.7400700  31.0836110  20.5090030  82.8545690
  32.2146410  21.4526600  82.5050470  17.8877840  18.7928170  71.8499330
  18.5969540  18.3711390  71.3646610  17.1717780  18.8603400  71.2182680
  17.5352000  14.8467500  70.8901980  18.2580130  15.3876440  71.2083200
  17.8076520  14.5730920  70.0143520  31.3443650  19.7159970  75.1573560
  31.8402770  19.4830840  75.9422440  31.1459720  18.8771810  74.7411200
  17.2244190  14.0973690  80.7924600  17.8720380  13.5471070  80.3519760
  17.6446030  14.3516840  81.6140410  32.7730810  18.3520920  77.6911240
  32.6630090  18.1976960  78.6293510  33.5338400  17.8241860  77.4486650
  33.6621080  16.1828840  70.9317380  34.5870390  16.0510020  70.7235670
  33.6396870  16.2621660  71.8853830  33.7359570  16.9539500  73.5574090
  32.9411070  16.8884620  74.0867000  33.9402850  17.8890140  73.5459440
  30.6777990  30.9931050  77.5512480  31.2737060  30.6715620  76.8746900
  30.9356140  30.5202870  78.3425750  31.2290200  31.6426350  81.3810210
  30.7693170  32.3942160  81.0068230  30.6002660  30.9232820  81.3225010
  21.6585920  29.9514590  80.5558340  22.1750940  29.3401950  80.0306600
  22.3083300  30.4543370  81.0469350  24.3981420  30.8423080  81.3827320
  24.6859230  30.5877380  80.5060330  24.9104640  30.2900440  81.9732890
  25.6158430  14.5813280  81.9623830  24.8330220  15.0558780  82.2420590
  25.3221360  13.6768110  81.8537010  30.1679500  15.2836380  80.0072920
  30.6087590  15.2281480  79.1594520  29.8987090  16.1994390  80.0783100
  32.0318070  14.9151620  78.0181740  31.9706470  13.9712840  77.8712760
  32.8110100  15.0231710  78.5635200  16.3370820  31.0543980  76.9805690
  16.1692860  30.4214660  77.6787580  15.4705330  31.2603380  76.6299880
  16.9598840  14.8860760  74.4837550  17.7178200  14.9989640  73.9101580
  16.4976010  15.7229960  74.4380980  23.5012650  17.0000030  77.4739860
  22.6887160  16.6256920  77.1335740  24.0054290  16.2445110  77.7761050
  28.0037630  13.6642480  78.7122930  28.6067000  14.2362690  79.1871450
  27.2630620  14.2281920  78.4896830  31.1472230  14.0664040  73.9863210
  31.3422860  14.9647490  74.2530640  30.3602100  13.8351120  74.4796160
  17.9433520  29.7477210  74.4255830  17.4181140  30.1285240  73.7217790
  17.8678100  30.3727980  75.1465540  19.3323990  15.4124810  73.0239520
  19.8616750  14.6254610  72.8947470  19.9652310  16.0916000  73.2575050
  21.5261830  15.1499950  76.0784910  20.8964570  14.4487260  76.2455040
  20.9866970  15.9104080  75.8618070  32.6998840  31.3064750  75.7469770
  32.8751030  30.6202490  75.1030690  32.0020410  31.8311800  75.3546440
  20.5426490  31.6959590  73.3005080  21.2745310  31.4118870  72.7528970
  20.8020160  31.4572870  74.1904460  19.7041280  27.8124320  73.3051410
  19.0750160  28.2809420  73.8537240  19.8189110  26.9673540  73.7397600
  27.1591000  21.8629980  59.4552610  27.0785050  20.9484590  59.1844320
  26.7455420  22.3597050  58.7492320  25.2909040  23.6409000  61.3361880
  24.5151140  23.1609440  61.6260450  25.9421970  22.9614650  61.1618040
  19.3074870  23.9528810  62.2137640  18.4759750  23.6977520  62.6134150
  19.9155850  24.0239580  62.9495560  29.3116470  28.0469190  60.1161010
  28.8498000  27.2756430  60.4448180  30.1242020  28.0735260  60.6213460
  19.2876130  27.9868900  62.4095660  19.5904170  27.0966640  62.2305880
  20.0319720  28.5439120  62.1817910  17.7166820  18.9130700  55.9980030
  16.8283520  19.2546670  55.8959910  18.0008010  18.7131020  55.1060860
  15.6799830  21.5136350  61.8819730  16.2515940  20.7458550  61.8823370
  15.6801370  21.8125110  60.9726340  25.5379780  30.3327200  59.7365000
  24.9191220  30.7884700  59.1659440  26.3931560  30.4878660  59.3354700
  24.7318030  26.3166190  61.3432040  24.6626310  25.3756130  61.1821170
  25.4937890  26.4067600  61.9154610  16.9224700  16.9220710  63.6688660
  16.7427540  16.0246460  63.9491420  16.5204780  17.4692580  64.3435610
  25.7623200  19.1236570  61.5700970  26.1388020  18.2508450  61.4574640
  25.6642710  19.4595270  60.6791410  19.8928210  17.4962200  57.0318410
  19.9994960  18.3965930  57.3387170  18.9820570  17.4480170  56.7413060
  29.5447320  16.6187010  58.5029310  30.3656940  16.1283580  58.5454790
  29.5781400  17.2084670  59.2561150  17.5411370  19.4181210  62.2771000
  18.2221480  19.6819580  62.8958400  17.2259420  18.5782080  62.6109010
  21.7335940  20.4648570  61.3643590  22.2414160  20.9629540  62.0048610
  22.2649180  19.6883770  61.1882950  33.8346870  18.6353760  65.0672940
  33.1299040  19.0235470  64.5488050  34.1004790  19.3304050  65.6693870
  20.0172040  15.1047130  65.6307010  20.0190480  15.6219520  64.8252910
  19.1876350  14.6277310  65.6076940  26.4043130  25.2166440  57.1296910
  25.7860400  25.6815890  56.5659630  26.9166380  25.9093920  57.5466420
  21.2674890  24.7442310  63.8080510  20.9344270  25.3711230  64.4501580
  21.4441570  25.2704190  63.0282180  29.7808800  18.5587390  61.2756850
  29.0764370  18.8472280  61.8559960  30.1420960  19.3687500  60.9156410
  19.6987370  16.8157090  63.6377460  20.0404180  17.6599140  63.3431330
  18.7603180  16.9640830  63.7542800  20.4793990  26.7123110  65.6229690
  21.0967990  27.3874190  65.3414140  19.6187110  27.1211090  65.5317190
  15.7726330  25.9022970  54.5036540  15.3954310  26.3910070  53.7721440
  16.0299400  26.5748250  55.1343070  31.3971580  28.1762520  63.5384330
  30.7135100  28.8461630  63.5301000  31.9365870  28.3743170  62.7729190
  32.8495720  18.0042180  61.6666060  31.9020630  18.0381160  61.7981490
  33.1745710  18.8181130  62.0515420  23.3815260  14.3039360  59.9622050
  23.6890240  13.7486250  59.2457550  22.4515960  14.4383820  59.7795040
  28.9330320  30.0206650  62.2529510  28.9457480  29.6168940  61.3851770
  28.3805540  30.7953940  62.1490940  30.2275740  26.7422870  57.3419680
  30.1172070  25.7997200  57.4669100  30.2243990  27.1038510  58.2282440
  28.3315760  24.9236490  63.5812120  28.7484550  24.7096600  62.7465580
  29.0555580  25.1809280  64.1520740  25.7696020  22.3688190  56.6982170
  24.8425300  22.3025570  56.9270640  25.9220840  23.3068320  56.5837410
  25.7565100  18.6405190  53.6949330  24.8168770  18.8019150  53.7801790
  26.0748360  19.3590870  53.1485320  32.2777860  23.3223710  63.6728360
  31.4496490  23.3916800  63.1978490  32.8728340  23.9078020  63.2044190
  29.7993310  23.9308490  57.2017420  29.1805730  23.5928040  56.5543720
  29.7817760  23.2868250  57.9096610  29.2419870  20.1093030  64.6183230
  28.8291050  20.9346740  64.8723220  28.5095820  19.5238070  64.4259590
  21.3752660  22.8952930  59.4801900  20.9709660  22.1830180  58.9847800
  21.4615780  22.5506170  60.3689940  21.8434360  26.5820490  61.6441110
  21.5462650  25.9765960  60.9648890  22.7934180  26.6197800  61.5330470
  20.0881280  19.6696140  63.2600940  20.6395870  19.7791480  62.4854190
  20.6024790  20.0433740  63.9756170  29.9319970  30.1552360  65.3064210
  29.4550530  30.9624550  65.1136820  29.2481760  29.5030690  65.4590420
  20.9352790  26.3202180  68.2948910  20.0381320  26.5442150  68.5422310
  20.9605660  26.4437120  67.3460310  27.9758010  23.1695300  54.2090170
  28.4151290  22.3317730  54.0627990  28.6886430  23.8024700  54.2954310
  19.7624010  23.1915500  66.8706280  19.6231780  24.0638300  67.2393680
  18.8805370  22.8488310  66.7254220  26.0853390  28.1091370  58.1771410
  26.5249300  28.8515700  57.7626800  26.0240280  28.3517940  59.1010370
  21.5604360  29.1337200  69.0791430  21.5319790  29.5380150  68.2119860
  21.3969330  28.2047560  68.9163030  31.5575150  14.4238110  52.5231210
  31.2447810  14.5164940  53.4230280  32.3187620  15.0019140  52.4728640
  18.0757290  21.7897910  56.9808550  17.9554890  22.5160000  56.3689820
  17.7658180  21.0200820  56.5036460  33.5119180  29.9164300  70.3755600
  33.9878900  30.3947190  71.0544680  34.1326340  29.8481790  69.6501100
  15.7142660  24.9613050  62.7877190  15.7923080  25.0961820  61.8432910
  16.3284340  24.2528940  62.9805310  16.9590290  26.6613240  59.1983370
  16.5518370  26.8027830  58.3436970  17.8503300  26.3773400  58.9954580
  32.9152430  27.1077150  67.5355610  33.0415490  26.8689030  66.6172790
  32.9573810  26.2761690  68.0077690  26.7769170  30.8105150  66.1050420
  27.2913840  30.7213160  66.9072850  25.9338250  31.1564850  66.3978330
  28.7523570  31.0960490  55.5334420  28.5924710  30.8063430  56.4316250
  28.5870280  30.3200620  54.9979650  21.2311950  30.8759020  57.3106040
  21.0554430  29.9594560  57.0973840  20.3767690  31.2346310  57.5503840
  28.4549700  28.6048050  54.0932420  27.7614860  28.6025340  53.4334700
  29.1972560  28.1807370  53.6626590  28.0199630  30.2310760  58.1680910
  28.4756580  29.4500140  58.4819530  28.3592150  30.9417580  58.7122090
  32.7676440  19.1609610  68.5005350  32.1520710  19.6689280  67.9720810
  32.4472860  18.2607940  68.4431290  15.7702180  26.0027220  65.3271650
  15.9333220  25.5332580  64.5091020  16.2354630  25.4950780  65.9920490
  20.5420950  15.1332980  60.3632220  20.0989100  15.9142520  60.0316740
  21.1005940  15.4562870  61.0703160  24.8290760  18.0001500  65.9667540
  24.3670130  18.2084520  66.7787480  24.4268870  17.1860850  65.6638210
  29.8295270  19.2210450  67.0964200  28.9788860  18.9216200  67.4173270
  29.6697060  19.4652460  66.1848020  26.9244980  20.7212200  69.1962990
  27.2498390  19.8875950  68.8565220  27.7125310  21.2440720  69.3441320
  23.6579770  14.7543680  55.2438050  23.0333950  14.7503550  55.9691360
  23.5709890  13.8874640  54.8474020  22.5796850  15.6780310  62.2221820
  22.8769180  16.5843140  62.1413840  23.1282410  15.1899090  61.6081390
  20.3335170  20.2566550  58.0913470  20.1076090  20.0403720  58.9960090
  19.5527700  20.6895010  57.7459440  27.5632930  20.2629920  56.6904120
  26.9641820  20.9865720  56.5067740  28.1112540  20.2006700  55.9080570
  22.7734380  21.1552130  68.7573740  22.6777980  20.2146860  68.6074140
  23.6166360  21.3767200  68.3621810  26.1697800  18.8993460  58.7207400
  26.5627370  19.2165660  57.9076090  26.5314650  18.0205340  58.8351920
  17.9044920  17.5665800  66.9107520  17.5108310  18.4141010  67.1180300
  17.2163320  16.9292170  67.1016160  24.4789970  17.6500770  69.9804260
  23.7888290  17.4572970  70.6150350  25.2222270  17.9335410  70.5128560
  15.2061970  15.4894260  60.9437600  14.9175020  16.0597120  61.6562580
  15.9507730  15.0098710  61.3068830  15.3932200  19.4314380  52.1540320
  15.3106870  20.3745140  52.2955310  15.0415260  19.2889290  51.2752670
  26.7552940  21.4899210  62.8158180  26.0234060  21.9986020  63.1648280
  26.3577280  20.6729190  62.5146960  23.1930330  18.1653410  61.2210670
  23.1966390  17.7243360  60.3715210  24.0881450  18.4870740  61.3282490
  19.0432710  18.0479900  60.1804880  18.7032760  18.5255130  60.9371930
  18.2810030  17.5945020  59.8205980  23.2550480  19.1665490  54.2117430
  23.3763300  19.1251970  55.1603250  22.8698990  20.0289640  54.0564160
  27.2178850  16.9432890  62.2281120  27.2351590  17.3941540  63.0722970
  26.9694430  16.0438530  62.4414560  22.2671980  21.4766630  53.6100730
  21.6988880  21.0284880  52.9836640  22.9760980  21.8359410  53.0765880
  30.6449600  14.3565070  68.0667500  30.9695370  13.6254730  68.5925480
  30.6806110  14.0378710  67.1648490  17.3441160  25.3778650  67.4867460
  16.9595950  24.7372320  68.0850420  17.6553350  26.0814770  68.0562190
  23.4938300  22.2255190  62.9676080  23.8608430  21.7513760  63.7137420
  23.3043360  23.0996760  63.3084420  16.3578790  16.9698880  59.0969550
  16.0725710  16.6054550  59.9348170  16.2957650  16.2379340  58.4832690
  21.2837670  21.2663830  65.2860290  20.9794740  22.1455810  65.5110650
  22.2384130  21.3263620  65.3217730  19.8119460  25.4724820  55.8827140
  19.0381720  24.9322440  55.7225860  20.5414090  24.9531430  55.5444900
  30.5707440  24.4690180  61.6753530  31.2906560  24.9645470  61.2849640
  30.3689260  23.7908070  61.0307400  26.0317380  15.8628140  55.8182920
  25.2181990  15.3641310  55.7428230  25.8379330  16.7026390  55.4019270
  25.9526240  24.5399240  67.5622530  25.8863550  23.6194910  67.3080120
  25.3231380  24.6374680  68.2767170  28.7465770  20.2347790  54.1145080
  29.6345390  20.5465020  53.9396420  28.7170860  19.3620040  53.7225660
  19.8556860  25.1405200  59.5205950  20.3735530  24.3373460  59.4662840
  19.4040880  25.0784340  60.3622780  24.7426360  26.4071480  54.7933250
  25.0842060  27.1513710  54.2976570  23.9139070  26.7202600  55.1558080
  17.3401400  22.1066570  66.4331650  16.9816340  22.7720420  67.0204990
  17.0455960  21.2750120  66.8044270  20.5414520  22.5650810  69.3171200
  20.2414660  22.7107990  68.4199020  21.3125760  22.0056100  69.2244590
  25.8842970  27.3619810  67.3126330  25.8987510  26.4300770  67.0945240
  25.1768070  27.4479570  67.9516100  31.0180040  21.5459630  53.5824940
  30.9343760  21.9773850  52.7321380  31.7374230  22.0057980  54.0151760
  32.0954180  24.0027150  66.6594910  31.3702370  24.5955930  66.4624300
  32.6229640  23.9950690  65.8608280  32.0467290  28.4001890  56.3107070
  31.4043450  27.7457510  56.5850790  31.6597950  28.8056980  55.5347740
  27.6253770  25.7287320  60.1578760  27.9777590  25.1315450  59.4980130
  26.7416100  25.4031550  60.3287010  23.7117050  26.4885010  57.5649170
  24.3988180  27.0354220  57.9456760  22.9249470  27.0325740  57.5998780
  15.8509450  22.1057830  53.0566250  16.7204300  22.3882630  53.3402170
  15.3599770  22.9193700  52.9415060  23.0144260  23.4931040  57.1774530
  23.4707040  24.3036290  57.4034720  22.6632470  23.1754180  58.0093020
  25.3176870  29.0037380  64.4066830  25.9619090  29.2096760  65.0840250
  25.6806310  28.2425780  63.9537680  18.9156040  13.8368690  57.6497050
  18.7870670  13.8286590  58.5981970  18.0918060  14.1751780  57.2988060
  26.5908950  27.0069730  63.1244280  27.2331180  26.3062890  63.2376450
  27.1158300  27.7868170  62.9441170  30.4364670  27.2918350  52.8483420
  30.2102250  26.5748790  53.4408060  30.0460870  27.0430790  52.0105170
  28.3646570  27.8064630  66.3280340  28.7002810  28.3931320  67.0058260
  27.4446910  27.6757340  66.5578130  16.2180700  31.3185210  53.6227880
  16.5778340  31.9174550  52.9685150  16.0773040  31.8645100  54.3962910
  15.9149970  15.5959810  67.1103750  15.2008490  15.7956730  67.7156360
  16.3345010  14.8199380  67.4818550  30.0180920  25.2090290  54.5097580
  29.7302620  25.6702980  55.2975460  30.8133090  24.7488060  54.7781800
  16.2022560  29.5840070  68.0970280  16.3113680  28.6434810  67.9565670
  15.5503120  29.8494820  67.4484010  24.1935150  27.8555960  69.4968400
  23.8732020  27.1365200  70.0414090  23.5193510  28.5311030  69.5704460
  22.2349320  28.7016410  54.4401550  22.2259420  29.4346100  53.8246060
  21.3147680  28.4547990  54.5328510  17.8355960  23.9231300  55.1848310
  17.2283910  24.6630200  55.1943610  18.3105310  24.0130660  54.3586510
  27.4088750  18.0882120  64.8605200  27.7769570  17.2677330  65.1884770
  26.5486950  18.1484010  65.2760850  30.7750780  17.0439060  55.6692760
  30.1463940  17.1484730  54.9550990  30.2802700  17.2635840  56.4586640
  25.2208920  28.7644650  53.1026740  25.3220900  28.5608640  52.1728720
  24.3210660  28.5102930  53.3074520  22.7434810  19.3225010  57.0850640
  22.0350960  19.7911350  57.5264250  23.0279290  18.6647020  57.7195830
  24.3690740  20.7421710  65.0843170  24.8675990  21.2167530  65.7495020
  24.5113690  19.8185230  65.2913200  26.7750240  16.0475670  58.5246430
  26.6518020  16.0661800  57.5755940  27.7234800  16.0954610  58.6444830
  23.8627030  31.2830970  57.7974410  24.1168530  31.2452360  56.8753780
  22.9139510  31.1564300  57.7902660  20.9469830  17.6310090  54.4601350
  21.7960360  18.0680240  54.3941540  20.5801100  17.9430350  55.2873410
  31.5757600  16.9589670  65.9271560  31.0731200  17.6995070  66.2665370
  32.3914260  17.3473670  65.6108350  29.8679610  22.2022850  59.3732920
  28.9269750  22.2173080  59.5480610  30.1823680  21.4158810  59.8193220
  19.8461250  23.8842450  52.9336880  20.6124520  23.7723810  53.4962310
  19.9235940  23.1880420  52.2813650  18.5408010  21.3167520  53.6169770
  18.6211600  20.3695030  53.7287170  19.4327760  21.6474400  53.7230430
  31.8705190  29.3731700  61.0487180  31.9952610  30.1962870  61.5210990
  32.7370750  29.1622430  60.7011330  19.3422720  31.4662910  60.7204310
  20.0785200  30.9178370  60.9912880  19.7263640  32.3318920  60.5810300
  16.2268200  27.5336480  56.5945820  15.3007980  27.7757620  56.5851230
  16.6924630  28.3610740  56.4730570  18.3481000  30.6508980  69.9089890
  19.1493730  30.9721030  70.3225290  17.8332820  30.2904560  70.6309800
  22.4525030  30.6393220  52.5429880  23.2453640  30.9282050  52.0911670
  21.9329380  30.2085390  51.8642360  27.1845630  26.7588850  69.8565300
  26.5783790  26.7820450  69.1161050  26.8799740  26.0271890  70.3932550
  28.6146000  30.4869140  68.4674710  29.5667750  30.4027160  68.4174950
  28.4674220  31.1510850  69.1408500  31.5055200  29.8663350  53.9666620
  31.2196710  29.4528490  53.1520800  31.3074750  30.7951060  53.8467140
  16.0678810  23.1382440  68.8525940  16.5717830  22.5589720  69.4242170
  15.3286230  23.4222670  69.3902310  22.9702430  25.8596630  52.4072230
  22.8653070  25.2448980  53.1333610  22.8026650  25.3362520  51.6235240
  23.1216750  24.5453430  68.3861460  22.3562420  25.1138430  68.3016130
  23.3032710  24.2529640  67.4929690  26.2105160  24.9216660  53.0114220
  25.6615260  25.3685960  53.6556960  26.8324420  24.4165910  53.5351890
  30.2640100  26.2758760  68.9436480  31.0049570  26.6134520  68.4403940
  29.5012780  26.4450820  68.3906250  18.1001890  21.2812030  69.7476010
  18.1407230  20.9825900  70.6561240  18.9547390  21.6819640  69.5883530
  21.8780280  23.8807580  54.9079520  22.2996700  23.7147450  55.7510910
  22.0031120  23.0707810  54.4134660  20.0407700  19.8604130  67.7150500
  19.5104160  19.3695080  67.0873840  20.7095770  20.2888330  67.1808430
  24.3907920  22.9045190  52.1556620  24.9113580  22.1894210  51.7897770
  25.0376320  23.5431060  52.4557130  28.9385760  24.3273590  67.4791690
  29.3526780  24.4818670  68.3282110  28.0036760  24.4528810  67.6417470
  29.4107930  21.6669750  69.4830840  29.9928700  20.9122070  69.3951320
  29.5869700  22.1977190  68.7062320  20.5280000  16.8266500  67.7947790
  20.4336870  16.2087250  67.0698660  19.9477390  17.5532790  67.5677700
  23.2941440  15.3839740  64.8275180  22.8458740  15.4064000  63.9820730
  22.6606640  14.9858760  65.4245480  23.7000990  24.2794070  65.4487620
  24.1189100  25.1226800  65.2763860  22.7809620  24.4166110  65.2194400
  26.0364890  22.0110250  66.8325460  26.1561100  21.4151390  67.5720300
  26.8958890  22.0479940  66.4126760  28.3752790  22.5647440  65.4087970
  27.8488010  23.0890060  64.8053110  28.7184130  23.1974830  66.0397700
  20.7739180  19.9540810  51.8537680  20.5728240  19.0908170  52.2151020
  20.6031230  19.8674170  50.9159280  21.5508410  30.5847080  66.5645350
  21.0129500  31.3093140  66.2454050  21.8042370  30.1077420  65.7742690
  22.8033660  18.5531600  68.0901280  23.3933350  18.2447450  68.7779100
  21.9853900  18.0811350  68.2461180  27.6227090  18.1697410  68.3234300
  26.9342610  17.5078950  68.2584290  28.3433110  17.7235680  68.7682760
  28.2527490  14.7649040  54.3824560  28.5329780  13.9216940  54.7383980
  27.4793220  14.9972150  54.8963310  19.5721980  17.0541430  51.8415560
  19.8747880  17.0608860  50.9334710  20.3116570  16.7039290  52.3383220
  24.4070620  31.8198290  66.8232000  24.3329320  32.7233430  67.1304370
  23.5049460  31.5010190  66.7954070  22.7906910  15.9976050  52.8271760
  22.4428910  15.3200040  52.2474210  22.9919680  15.5365560  53.6415150
  24.9555950  30.9856800  54.4458360  25.8506740  31.3241770  54.4677120
  24.9873580  30.2636210  53.8182640  18.5952110  26.3583850  52.6745360
  19.0326980  26.9013520  53.3302940  19.0799840  25.5330800  52.6841700
  15.8097910  29.1472880  60.1265620  16.1400920  28.2793940  59.8944260
  16.2388910  29.3531400  60.9570580  20.4059830  27.4781890  57.7867590
  20.1055370  27.3546860  58.6871500  20.2997320  26.6190480  57.3783320
  16.2988120  30.0143470  62.8647250  15.8619110  30.1944270  63.6971400
  16.8665800  30.7718090  62.7228970  31.9350300  29.5160470  67.1524560
  31.3352290  29.5753030  66.4088480  32.0644200  28.5765450  67.2821410
  33.1751750  27.2578290  52.4894270  32.3444710  27.3254940  52.9601500
  33.3523580  28.1482410  52.1861130  32.6308210  24.0025770  54.9928470
  33.3927120  24.5722420  55.0988160  32.6462580  23.4352970  55.7636780
  16.1312550  22.5263700  59.2236130  15.4761390  22.2575340  58.5795830
  16.9690500  22.4168180  58.7738110  33.6368180  24.8575870  59.8370400
  34.0077010  24.0743190  59.4306370  34.2770110  25.5464970  59.6587700
  30.6201940  26.2412450  65.2500720  29.8061780  26.6709610  65.5126510
  31.0276140  26.8530860  64.6369770  32.6827380  24.2960140  52.1500990
  32.9576220  25.2039020  52.0220210  32.4938120  24.2322670  53.0862980
  29.0802990  17.3204990  53.4454620  29.4987870  17.1335970  52.6051280
  28.7739050  16.4684040  53.7557550  32.5792720  22.2329130  57.1430420
  32.2036320  21.4657060  56.7111710  31.8495840  22.6151830  57.6305350
  17.1688480  22.9116270  63.7639470  17.5361520  22.8243670  64.6435490
  16.5999300  22.1482820  63.6646330  31.9692340  21.3800650  66.7769940
  31.7378430  21.1513400  65.8767890  32.2296890  22.3000200  66.7314830
  16.7204480  19.8225360  67.6697890  15.8260530  19.7892120  68.0091600
  17.2602030  20.0212150  68.4349140  30.4080410  16.6057080  69.5549640
  31.2850590  16.6140480  69.9383640  30.4201250  15.8687920  68.9441990
  15.3450630  19.7362630  55.1661460  14.4414710  19.9992830  54.9913120
  15.8291250  20.0073800  54.3861420  31.8543680  20.4586620  60.4437660
  32.3781160  19.9649270  59.8127830  32.4403100  20.5936980  61.1885230
  32.0333400  20.5426490  63.9657210  31.0836110  20.5090030  64.0802200
  32.2146410  21.4526600  63.7306980  17.8877840  18.7928170  53.0755840
  18.5969540  18.3711390  52.5903120  17.1717780  18.8603400  52.4439190
  17.5352000  14.8467500  52.1158490  18.2580130  15.3876440  52.4339710
  17.8076520  14.5730920  51.2400030  31.3443650  19.7159970  56.3830070
  31.8402770  19.4830840  57.1678950  31.1459720  18.8771810  55.9667710
  17.2244190  14.0973690  62.0181110  17.8720380  13.5471070  61.5776270
  17.6446030  14.3516840  62.8396920  32.7730810  18.3520920  58.9167750
  32.6630090  18.1976960  59.8550020  33.5338400  17.8241860  58.6743160
  31.1196530  14.2915050  65.3750750  31.7568750  14.9049190  65.7409940
  31.2671420  14.3275710  64.4299980  33.6621080  16.1828840  52.1573890
  34.5870390  16.0510020  51.9492180  33.6396870  16.2621660  53.1110340
  33.7359570  16.9539500  54.7830600  32.9411070  16.8884620  55.3123510
  33.9402850  17.8890140  54.7715950  30.6777990  30.9931050  58.7768990
  31.2737060  30.6715620  58.1003410  30.9356140  30.5202870  59.5682260
  16.9776190  14.2529360  64.7606430  16.6291010  14.7093180  65.5264610
  16.6463890  13.3586490  64.8428860  18.5840560  27.4248960  68.9259620
  18.5410190  27.0541870  69.8074080  18.7151570  28.3626530  69.0661440
  22.2846590  28.9808550  64.5269340  22.0437950  29.2483110  63.6399860
  23.2249230  29.1514280  64.5820200  24.4901010  15.4441240  68.2825850
  24.4289900  16.0363070  69.0321260  25.4301390  15.3367200  68.1376110
  27.1275570  15.1011300  67.9218140  27.7415980  15.4190590  67.2599220
  27.6725130  14.6159890  68.5414000  33.5450750  31.0002930  65.3279980
  33.0509030  31.3971800  64.6107110  32.9364040  30.3752140  65.7217260
  17.6496830  13.7805560  68.0357200  18.1979820  13.5993610  67.2723310
  17.7152140  12.9899670  68.5713510  18.4228590  30.3711210  66.0457400
  17.8288910  30.2395910  66.7847440  18.4152430  29.5349350  65.5799500
  27.8683610  13.6643440  64.2487430  26.9943450  13.9978550  64.0460360
  27.7594360  13.1916620  65.0739300  28.7755590  15.8714310  65.6329150
  28.4468950  15.0566070  65.2530880  29.7237890  15.8284120  65.5094840
  31.2290200  31.6426350  62.6066720  30.7693170  32.3942160  62.2324740
  30.6002660  30.9232820  62.5481520  18.0540820  27.7369590  64.9965440
  17.3274880  27.1174880  64.9291390  18.1149970  28.1310200  64.1263520
  21.6585920  29.9514590  61.7814850  22.1750940  29.3401950  61.2563110
  22.3083300  30.4543370  62.2725860  24.3981420  30.8423080  62.6083830
  24.6859230  30.5877380  61.7316840  24.9104640  30.2900440  63.1989400
  25.6158430  14.5813280  63.1880340  24.8330220  15.0558780  63.4677100
  25.3221360  13.6768110  63.0793520  30.1679500  15.2836380  61.2329430
  30.6087590  15.2281480  60.3851030  29.8987090  16.1994390  61.3039610
  32.0318070  14.9151620  59.2438250  31.9706470  13.9712840  59.0969270
  32.8110100  15.0231710  59.7891710  16.3370820  31.0543980  58.2062200
  16.1692860  30.4214660  58.9044090  15.4705330  31.2603380  57.8556390
  16.9598840  14.8860760  55.7094060  17.7178200  14.9989640  55.1358090
  16.4976010  15.7229960  55.6637490  23.5012650  17.0000030  58.6996370
  22.6887160  16.6256920  58.3592250  24.0054290  16.2445110  59.0017560
  28.0037630  13.6642480  59.9379440  28.6067000  14.2362690  60.4127960
  27.2630620  14.2281920  59.7153340  31.1472230  14.0664040  55.2119720
  31.3422860  14.9647490  55.4787150  30.3602100  13.8351120  55.7052670
  17.9433520  29.7477210  55.6512340  17.4181140  30.1285240  54.9474300
  17.8678100  30.3727980  56.3722050  19.3323990  15.4124810  54.2496030
  19.8616750  14.6254610  54.1203980  19.9652310  16.0916000  54.4831560
  21.5261830  15.1499950  57.3041420  20.8964570  14.4487260  57.4711550
  20.9866970  15.9104080  57.0874580  24.4653780  31.7639180  69.9752030
  25.3921090  31.5283450  70.0187990  24.4504210  32.5911180  69.4938060
  32.6998840  31.3064750  56.9726280  32.8751030  30.6202490  56.3287200
  32.0020410  31.8311800  56.5802950  21.6517390  14.4283930  69.7393910
  21.3701660  14.9317530  68.9754730  22.0337090  13.6305680  69.3736040
  20.5426490  31.6959590  54.5261590  21.2745310  31.4118870  53.9785480
  20.8020160  31.4572870  55.4160970  19.7041280  27.8124320  54.5307920
  19.0750160  28.2809420  55.0793750  19.8189110  26.9673540  54.9654110
  28.2532850  13.8437510  70.3174380  28.1398300  14.1632120  71.2125900
  29.0702590  14.2450020  70.0211660  31.0331340  30.9909040  69.7993070
  31.8256660  30.4958270  69.5919030  31.3264490  31.6699180  70.4068680
  27.1591000  21.8629980  40.6809120  27.0785050  20.9484590  40.4100830
  26.7455420  22.3597050  39.9748830  19.3074870  23.9528810  43.4394150
  18.4759750  23.6977520  43.8390660  19.9155850  24.0239580  44.1752070
  17.7166820  18.9130700  37.2236540  16.8283520  19.2546670  37.1216420
  18.0008010  18.7131020  36.3317370  15.6799830  21.5136350  43.1076240
  16.2515940  20.7458550  43.1079880  15.6801370  21.8125110  42.1982850
  16.9224700  16.9220710  44.8945170  16.7427540  16.0246460  45.1747930
  16.5204780  17.4692580  45.5692120  25.7623200  19.1236570  42.7957480
  26.1388020  18.2508450  42.6831150  25.6642710  19.4595270  41.9047920
  19.8928210  17.4962200  38.2574920  19.9994960  18.3965930  38.5643680
  18.9820570  17.4480170  37.9669570  29.5447320  16.6187010  39.7285820
  30.3656940  16.1283580  39.7711300  29.5781400  17.2084670  40.4817660
  17.5411370  19.4181210  43.5027510  18.2221480  19.6819580  44.1214910
  17.2259420  18.5782080  43.8365520  21.7335940  20.4648570  42.5900100
  22.2414160  20.9629540  43.2305120  22.2649180  19.6883770  42.4139460
  33.8346870  18.6353760  46.2929450  33.1299040  19.0235470  45.7744560
  34.1004790  19.3304050  46.8950380  20.0172040  15.1047130  46.8563520
  20.0190480  15.6219520  46.0509420  19.1876350  14.6277310  46.8333450
  21.2674890  24.7442310  45.0337020  20.9344270  25.3711230  45.6758090
  21.4441570  25.2704190  44.2538690  29.7808800  18.5587390  42.5013360
  29.0764370  18.8472280  43.0816470  30.1420960  19.3687500  42.1412920
  19.6987370  16.8157090  44.8633970  20.0404180  17.6599140  44.5687840
  18.7603180  16.9640830  44.9799310  20.4793990  26.7123110  46.8486200
  21.0967990  27.3874190  46.5670650  19.6187110  27.1211090  46.7573700
  15.7726330  25.9022970  35.7293050  15.3954310  26.3910070  34.9977950
  16.0299400  26.5748250  36.3599580  32.8495720  18.0042180  42.8922570
  31.9020630  18.0381160  43.0238000  33.1745710  18.8181130  43.2771930
  23.3815260  14.3039360  41.1878560  23.6890240  13.7486250  40.4714060
  22.4515960  14.4383820  41.0051550  28.3315760  24.9236490  44.8068630
  28.7484550  24.7096600  43.9722090  29.0555580  25.1809280  45.3777250
  25.7696020  22.3688190  37.9238680  24.8425300  22.3025570  38.1527150
  25.9220840  23.3068320  37.8093920  25.7565100  18.6405190  34.9205840
  24.8168770  18.8019150  35.0058300  26.0748360  19.3590870  34.3741830
  29.2419870  20.1093030  45.8439740  28.8291050  20.9346740  46.0979730
  28.5095820  19.5238070  45.6516100  21.3752660  22.8952930  40.7058410
  20.9709660  22.1830180  40.2104310  21.4615780  22.5506170  41.5946450
  20.0881280  19.6696140  44.4857450  20.6395870  19.7791480  43.7110700
  20.6024790  20.0433740  45.2012680  20.9352790  26.3202180  49.5205420
  20.0381320  26.5442150  49.7678820  20.9605660  26.4437120  48.5716820
  19.7624010  23.1915500  48.0962790  19.6231780  24.0638300  48.4650190
  18.8805370  22.8488310  47.9510730  21.5604360  29.1337200  50.3047940
  21.5319790  29.5380150  49.4376370  21.3969330  28.2047560  50.1419540
  31.5575150  14.4238110  33.7487720  31.2447810  14.5164940  34.6486790
  32.3187620  15.0019140  33.6985150  18.0757290  21.7897910  38.2065060
  17.9554890  22.5160000  37.5946330  17.7658180  21.0200820  37.7292970
  15.7142660  24.9613050  44.0133700  15.7923080  25.0961820  43.0689420
  16.3284340  24.2528940  44.2061820  32.9152430  27.1077150  48.7612120
  33.0415490  26.8689030  47.8429300  32.9573810  26.2761690  49.2334200
  32.7676440  19.1609610  49.7261860  32.1520710  19.6689280  49.1977320
  32.4472860  18.2607940  49.6687800  15.7702180  26.0027220  46.5528160
  15.9333220  25.5332580  45.7347530  16.2354630  25.4950780  47.2177000
  20.5420950  15.1332980  41.5888730  20.0989100  15.9142520  41.2573250
  21.1005940  15.4562870  42.2959670  24.8290760  18.0001500  47.1924050
  24.3670130  18.2084520  48.0043990  24.4268870  17.1860850  46.8894720
  29.8295270  19.2210450  48.3220710  28.9788860  18.9216200  48.6429780
  29.6697060  19.4652460  47.4104530  26.9244980  20.7212200  50.4219500
  27.2498390  19.8875950  50.0821730  27.7125310  21.2440720  50.5697830
  23.6579770  14.7543680  36.4694560  23.0333950  14.7503550  37.1947870
  23.5709890  13.8874640  36.0730530  22.5796850  15.6780310  43.4478330
  22.8769180  16.5843140  43.3670350  23.1282410  15.1899090  42.8337900
  20.3335170  20.2566550  39.3169980  20.1076090  20.0403720  40.2216600
  19.5527700  20.6895010  38.9715950  27.5632930  20.2629920  37.9160630
  26.9641820  20.9865720  37.7324250  28.1112540  20.2006700  37.1337080
  22.7734380  21.1552130  49.9830250  22.6777980  20.2146860  49.8330650
  23.6166360  21.3767200  49.5878320  26.1697800  18.8993460  39.9463910
  26.5627370  19.2165660  39.1332600  26.5314650  18.0205340  40.0608430
  17.9044920  17.5665800  48.1364030  17.5108310  18.4141010  48.3436810
  17.2163320  16.9292170  48.3272670  24.4789970  17.6500770  51.2060770
  23.7888290  17.4572970  51.8406860  25.2222270  17.9335410  51.7385070
  15.2061970  15.4894260  42.1694110  14.9175020  16.0597120  42.8819090
  15.9507730  15.0098710  42.5325340  15.3932200  19.4314380  33.3796830
  15.3106870  20.3745140  33.5211820  15.0415260  19.2889290  32.5009180
  26.7552940  21.4899210  44.0414690  26.0234060  21.9986020  44.3904790
  26.3577280  20.6729190  43.7403470  23.1930330  18.1653410  42.4467180
  23.1966390  17.7243360  41.5971720  24.0881450  18.4870740  42.5539000
  19.0432710  18.0479900  41.4061390  18.7032760  18.5255130  42.1628440
  18.2810030  17.5945020  41.0462490  23.2550480  19.1665490  35.4373940
  23.3763300  19.1251970  36.3859760  22.8698990  20.0289640  35.2820670
  27.2178850  16.9432890  43.4537630  27.2351590  17.3941540  44.2979480
  26.9694430  16.0438530  43.6671070  30.6449600  14.3565070  49.2924010
  30.9695370  13.6254730  49.8181990  30.6806110  14.0378710  48.3905000
  17.3441160  25.3778650  48.7123970  16.9595950  24.7372320  49.3106930
  17.6553350  26.0814770  49.2818700  23.4938300  22.2255190  44.1932590
  23.8608430  21.7513760  44.9393930  23.3043360  23.0996760  44.5340930
  16.3578790  16.9698880  40.3226060  16.0725710  16.6054550  41.1604680
  16.2957650  16.2379340  39.7089200  21.2837670  21.2663830  46.5116800
  20.9794740  22.1455810  46.7367160  22.2384130  21.3263620  46.5474240
  26.0317380  15.8628140  37.0439430  25.2181990  15.3641310  36.9684740
  25.8379330  16.7026390  36.6275780  25.9526240  24.5399240  48.7879040
  25.8863550  23.6194910  48.5336630  25.3231380  24.6374680  49.5023680
  28.7465770  20.2347790  35.3401590  29.6345390  20.5465020  35.1652930
  28.7170860  19.3620040  34.9482170  17.3401400  22.1066570  47.6588160
  16.9816340  22.7720420  48.2461500  17.0455960  21.2750120  48.0300780
  20.5414520  22.5650810  50.5427710  20.2414660  22.7107990  49.6455530
  21.3125760  22.0056100  50.4501100  25.8842970  27.3619810  48.5382840
  25.8987510  26.4300770  48.3201750  25.1768070  27.4479570  49.1772610
  31.0180040  21.5459630  34.8081450  30.9343760  21.9773850  33.9577890
  31.7374230  22.0057980  35.2408270  32.0954180  24.0027150  47.8851420
  31.3702370  24.5955930  47.6880810  32.6229640  23.9950690  47.0864790
  15.8509450  22.1057830  34.2822760  16.7204300  22.3882630  34.5658680
  15.3599770  22.9193700  34.1671570  23.0144260  23.4931040  38.4031040
  23.4707040  24.3036290  38.6291230  22.6632470  23.1754180  39.2349530
  18.9156040  13.8368690  38.8753560  18.7870670  13.8286590  39.8238480
  18.0918060  14.1751780  38.5244570  16.2180700  31.3185210  34.8484390
  16.5778340  31.9174550  34.1941660  16.0773040  31.8645100  35.6219420
  15.9149970  15.5959810  48.3360260  15.2008490  15.7956730  48.9412870
  16.3345010  14.8199380  48.7075060  16.2022560  29.5840070  49.3226790
  16.3113680  28.6434810  49.1822180  15.5503120  29.8494820  48.6740520
  24.1935150  27.8555960  50.7224910  23.8732020  27.1365200  51.2670600
  23.5193510  28.5311030  50.7960970  17.8355960  23.9231300  36.4104820
  17.2283910  24.6630200  36.4200120  18.3105310  24.0130660  35.5843020
  27.4088750  18.0882120  46.0861710  27.7769570  17.2677330  46.4141280
  26.5486950  18.1484010  46.5017360  30.7750780  17.0439060  36.8949270
  30.1463940  17.1484730  36.1807500  30.2802700  17.2635840  37.6843150
  22.7434810  19.3225010  38.3107150  22.0350960  19.7911350  38.7520760
  23.0279290  18.6647020  38.9452340  24.3690740  20.7421710  46.3099680
  24.8675990  21.2167530  46.9751530  24.5113690  19.8185230  46.5169710
  26.7750240  16.0475670  39.7502940  26.6518020  16.0661800  38.8012450
  27.7234800  16.0954610  39.8701340  20.9469830  17.6310090  35.6857860
  21.7960360  18.0680240  35.6198050  20.5801100  17.9430350  36.5129920
  31.5757600  16.9589670  47.1528070  31.0731200  17.6995070  47.4921880
  32.3914260  17.3473670  46.8364860  29.8679610  22.2022850  40.5989430
  28.9269750  22.2173080  40.7737120  30.1823680  21.4158810  41.0449730
  18.5408010  21.3167520  34.8426280  18.6211600  20.3695030  34.9543680
  19.4327760  21.6474400  34.9486940  16.2268200  27.5336480  37.8202330
  15.3007980  27.7757620  37.8107740  16.6924630  28.3610740  37.6987080
  18.3481000  30.6508980  51.1346400  19.1493730  30.9721030  51.5481800
  17.8332820  30.2904560  51.8566310  27.1845630  26.7588850  51.0821810
  26.5783790  26.7820450  50.3417560  26.8799740  26.0271890  51.6189060
  16.0678810  23.1382440  50.0782450  16.5717830  22.5589720  50.6498680
  15.3286230  23.4222670  50.6158820  23.1216750  24.5453430  49.6117970
  22.3562420  25.1138430  49.5272640  23.3032710  24.2529640  48.7186200
  30.2640100  26.2758760  50.1692990  31.0049570  26.6134520  49.6660450
  29.5012780  26.4450820  49.6162760  18.1001890  21.2812030  50.9732520
  18.1407230  20.9825900  51.8817750  18.9547390  21.6819640  50.8140040
  20.0407700  19.8604130  48.9407010  19.5104160  19.3695080  48.3130350
  20.7095770  20.2888330  48.4064940  28.9385760  24.3273590  48.7048200
  29.3526780  24.4818670  49.5538620  28.0036760  24.4528810  48.8673980
  29.4107930  21.6669750  50.7087350  29.9928700  20.9122070  50.6207830
  29.5869700  22.1977190  49.9318830  20.5280000  16.8266500  49.0204300
  20.4336870  16.2087250  48.2955170  19.9477390  17.5532790  48.7934210
  23.2941440  15.3839740  46.0531690  22.8458740  15.4064000  45.2077240
  22.6606640  14.9858760  46.6501990  23.7000990  24.2794070  46.6744130
  24.1189100  25.1226800  46.5020370  22.7809620  24.4166110  46.4450910
  26.0364890  22.0110250  48.0581970  26.1561100  21.4151390  48.7976810
  26.8958890  22.0479940  47.6383270  28.3752790  22.5647440  46.6344480
  27.8488010  23.0890060  46.0309620  28.7184130  23.1974830  47.2654210
  20.7739180  19.9540810  33.0794190  20.5728240  19.0908170  33.4407530
  20.6031230  19.8674170  32.1415790  21.5508410  30.5847080  47.7901860
  21.0129500  31.3093140  47.4710560  21.8042370  30.1077420  46.9999200
  22.8033660  18.5531600  49.3157790  23.3933350  18.2447450  50.0035610
  21.9853900  18.0811350  49.4717690  27.6227090  18.1697410  49.5490810
  26.9342610  17.5078950  49.4840800  28.3433110  17.7235680  49.9939270
  28.2527490  14.7649040  35.6081070  28.5329780  13.9216940  35.9640490
  27.4793220  14.9972150  36.1219820  19.5721980  17.0541430  33.0672070
  19.8747880  17.0608860  32.1591220  20.3116570  16.7039290  33.5639730
  22.7906910  15.9976050  34.0528270  22.4428910  15.3200040  33.4730720
  22.9919680  15.5365560  34.8671660  16.2988120  30.0143470  44.0903760
  15.8619110  30.1944270  44.9227910  16.8665800  30.7718090  43.9485480
  16.1312550  22.5263700  40.4492640  15.4761390  22.2575340  39.8052340
  16.9690500  22.4168180  39.9994620  29.0802990  17.3204990  34.6711130
  29.4987870  17.1335970  33.8307790  28.7739050  16.4684040  34.9814060
  17.1688480  22.9116270  44.9895980  17.5361520  22.8243670  45.8692000
  16.5999300  22.1482820  44.8902840  31.9692340  21.3800650  48.0026450
  31.7378430  21.1513400  47.1024400  32.2296890  22.3000200  47.9571340
  16.7204480  19.8225360  48.8954400  15.8260530  19.7892120  49.2348110
  17.2602030  20.0212150  49.6605650  30.4080410  16.6057080  50.7806150
  31.2850590  16.6140480  51.1640150  30.4201250  15.8687920  50.1698500
  15.3450630  19.7362630  36.3917970  14.4414710  19.9992830  36.2169630
  15.8291250  20.0073800  35.6117930  31.8543680  20.4586620  41.6694170
  32.3781160  19.9649270  41.0384340  32.4403100  20.5936980  42.4141740
  32.0333400  20.5426490  45.1913720  31.0836110  20.5090030  45.3058710
  32.2146410  21.4526600  44.9563490  17.8877840  18.7928170  34.3012350
  18.5969540  18.3711390  33.8159630  17.1717780  18.8603400  33.6695700
  17.5352000  14.8467500  33.3415000  18.2580130  15.3876440  33.6596220
  17.8076520  14.5730920  32.4656540  17.2244190  14.0973690  43.2437620
  17.8720380  13.5471070  42.8032780  17.6446030  14.3516840  44.0653430
  32.7730810  18.3520920  40.1424260  32.6630090  18.1976960  41.0806530
  33.5338400  17.8241860  39.8999670  31.1196530  14.2915050  46.6007260
  31.7568750  14.9049190  46.9666450  31.2671420  14.3275710  45.6556490
  33.6621080  16.1828840  33.3830400  34.5870390  16.0510020  33.1748690
  33.6396870  16.2621660  34.3366850  33.7359570  16.9539500  36.0087110
  32.9411070  16.8884620  36.5380020  33.9402850  17.8890140  35.9972460
  16.9776190  14.2529360  45.9862940  16.6291010  14.7093180  46.7521120
  16.6463890  13.3586490  46.0685370  18.5840560  27.4248960  50.1516130
  18.5410190  27.0541870  51.0330590  18.7151570  28.3626530  50.2917950
  24.4901010  15.4441240  49.5082360  24.4289900  16.0363070  50.2577770
  25.4301390  15.3367200  49.3632620  27.1275570  15.1011300  49.1474650
  27.7415980  15.4190590  48.4855730  27.6725130  14.6159890  49.7670510
  17.6496830  13.7805560  49.2613710  18.1979820  13.5993610  48.4979820
  17.7152140  12.9899670  49.7970020  18.4228590  30.3711210  47.2713910
  17.8288910  30.2395910  48.0103950  18.4152430  29.5349350  46.8056010
  27.8683610  13.6643440  45.4743940  26.9943450  13.9978550  45.2716870
  27.7594360  13.1916620  46.2995810  28.7755590  15.8714310  46.8585660
  28.4468950  15.0566070  46.4787390  29.7237890  15.8284120  46.7351350
  18.0540820  27.7369590  46.2221950  17.3274880  27.1174880  46.1547900
  18.1149970  28.1310200  45.3520030  25.6158430  14.5813280  44.4136850
  24.8330220  15.0558780  44.6933610  25.3221360  13.6768110  44.3050030
  30.1679500  15.2836380  42.4585940  30.6087590  15.2281480  41.6107540
  29.8987090  16.1994390  42.5296120  32.0318070  14.9151620  40.4694760
  31.9706470  13.9712840  40.3225780  32.8110100  15.0231710  41.0148220
  16.9598840  14.8860760  36.9350570  17.7178200  14.9989640  36.3614600
  16.4976010  15.7229960  36.8894000  23.5012650  17.0000030  39.9252880
  22.6887160  16.6256920  39.5848760  24.0054290  16.2445110  40.2274070
  28.0037630  13.6642480  41.1635950  28.6067000  14.2362690  41.6384470
  27.2630620  14.2281920  40.9409850  31.1472230  14.0664040  36.4376230
  31.3422860  14.9647490  36.7043660  30.3602100  13.8351120  36.9309180
  19.3323990  15.4124810  35.4752540  19.8616750  14.6254610  35.3460490
  19.9652310  16.0916000  35.7088070  21.5261830  15.1499950  38.5297930
  20.8964570  14.4487260  38.6968060  20.9866970  15.9104080  38.3131090
  24.4653780  31.7639180  51.2008540  25.3921090  31.5283450  51.2444500
  24.4504210  32.5911180  50.7194570  21.6517390  14.4283930  50.9650420
  21.3701660  14.9317530  50.2011240  22.0337090  13.6305680  50.5992550
  28.2532850  13.8437510  51.5430890  28.1398300  14.1632120  52.4382410
  29.0702590  14.2450020  51.2468170  31.0331340  30.9909040  51.0249580
  31.8256660  30.4958270  50.8175540  31.3264490  31.6699180  51.6325190
  27.1591000  21.8629980  21.9065630  27.0785050  20.9484590  21.6357340
  26.7455420  22.3597050  21.2005340  25.2909040  23.6409000  23.7874900
  24.5151140  23.1609440  24.0773470  25.9421970  22.9614650  23.6131060
  19.3074870  23.9528810  24.6650660  18.4759750  23.6977520  25.0647170
  19.9155850  24.0239580  25.4008580  29.3116470  28.0469190  22.5674030
  28.8498000  27.2756430  22.8961200  30.1242020  28.0735260  23.0726480
  19.2876130  27.9868900  24.8608680  19.5904170  27.0966640  24.6818900
  20.0319720  28.5439120  24.6330930  17.7166820  18.9130700  18.4493050
  16.8283520  19.2546670  18.3472930  18.0008010  18.7131020  17.5573880
  15.6799830  21.5136350  24.3332750  16.2515940  20.7458550  24.3336390
  15.6801370  21.8125110  23.4239360  25.5379780  30.3327200  22.1878020
  24.9191220  30.7884700  21.6172460  26.3931560  30.4878660  21.7867720
  24.7318030  26.3166190  23.7945060  24.6626310  25.3756130  23.6334190
  25.4937890  26.4067600  24.3667630  16.9224700  16.9220710  26.1201680
  16.7427540  16.0246460  26.4004440  16.5204780  17.4692580  26.7948630
  25.7623200  19.1236570  24.0213990  26.1388020  18.2508450  23.9087660
  25.6642710  19.4595270  23.1304430  19.8928210  17.4962200  19.4831430
  19.9994960  18.3965930  19.7900190  18.9820570  17.4480170  19.1926080
  29.5447320  16.6187010  20.9542330  30.3656940  16.1283580  20.9967810
  29.5781400  17.2084670  21.7074170  17.5411370  19.4181210  24.7284020
  18.2221480  19.6819580  25.3471420  17.2259420  18.5782080  25.0622030
  21.7335940  20.4648570  23.8156610  22.2414160  20.9629540  24.4561630
  22.2649180  19.6883770  23.6395970  33.8346870  18.6353760  27.5185960
  33.1299040  19.0235470  27.0001070  34.1004790  19.3304050  28.1206890
  20.0172040  15.1047130  28.0820030  20.0190480  15.6219520  27.2765930
  19.1876350  14.6277310  28.0589960  26.4043130  25.2166440  19.5809930
  25.7860400  25.6815890  19.0172650  26.9166380  25.9093920  19.9979440
  21.2674890  24.7442310  26.2593530  20.9344270  25.3711230  26.9014600
  21.4441570  25.2704190  25.4795200  29.7808800  18.5587390  23.7269870
  29.0764370  18.8472280  24.3072980  30.1420960  19.3687500  23.3669430
  19.6987370  16.8157090  26.0890480  20.0404180  17.6599140  25.7944350
  18.7603180  16.9640830  26.2055820  20.4793990  26.7123110  28.0742710
  21.0967990  27.3874190  27.7927160  19.6187110  27.1211090  27.9830210
  15.7726330  25.9022970  16.9549560  15.3954310  26.3910070  16.2234460
  16.0299400  26.5748250  17.5856090  32.8495720  18.0042180  24.1179080
  31.9020630  18.0381160  24.2494510  33.1745710  18.8181130  24.5028440
  23.3815260  14.3039360  22.4135070  23.6890240  13.7486250  21.6970570
  22.4515960  14.4383820  22.2308060  30.2275740  26.7422870  19.7932700
  30.1172070  25.7997200  19.9182120  30.2243990  27.1038510  20.6795460
  28.3315760  24.9236490  26.0325140  28.7484550  24.7096600  25.1978600
  29.0555580  25.1809280  26.6033760  25.7696020  22.3688190  19.1495190
  24.8425300  22.3025570  19.3783660  25.9220840  23.3068320  19.0350430
  25.7565100  18.6405190  16.1462350  24.8168770  18.8019150  16.2314810
  26.0748360  19.3590870  15.5998340  32.2777860  23.3223710  26.1241380
  31.4496490  23.3916800  25.6491510  32.8728340  23.9078020  25.6557210
  29.7993310  23.9308490  19.6530440  29.1805730  23.5928040  19.0056740
  29.7817760  23.2868250  20.3609630  29.2419870  20.1093030  27.0696250
  28.8291050  20.9346740  27.3236240  28.5095820  19.5238070  26.8772610
  21.3752660  22.8952930  21.9314920  20.9709660  22.1830180  21.4360820
  21.4615780  22.5506170  22.8202960  21.8434360  26.5820490  24.0954130
  21.5462650  25.9765960  23.4161910  22.7934180  26.6197800  23.9843490
  20.0881280  19.6696140  25.7113960  20.6395870  19.7791480  24.9367210
  20.6024790  20.0433740  26.4269190  27.9758010  23.1695300  16.6603190
  28.4151290  22.3317730  16.5141010  28.6886430  23.8024700  16.7467330
  19.7624010  23.1915500  29.3219300  19.6231780  24.0638300  29.6906700
  18.8805370  22.8488310  29.1767240  26.0853390  28.1091370  20.6284430
  26.5249300  28.8515700  20.2139820  26.0240280  28.3517940  21.5523390
  31.5575150  14.4238110  14.9744230  31.2447810  14.5164940  15.8743300
  32.3187620  15.0019140  14.9241660  18.0757290  21.7897910  19.4321570
  17.9554890  22.5160000  18.8202840  17.7658180  21.0200820  18.9549480
  15.7142660  24.9613050  25.2390210  15.7923080  25.0961820  24.2945930
  16.3284340  24.2528940  25.4318330  16.9590290  26.6613240  21.6496390
  16.5518370  26.8027830  20.7949990  17.8503300  26.3773400  21.4467600
  28.7523570  31.0960490  17.9847440  28.5924710  30.8063430  18.8829270
  28.5870280  30.3200620  17.4492670  21.2311950  30.8759020  19.7619060
  21.0554430  29.9594560  19.5486860  20.3767690  31.2346310  20.0016860
  28.4549700  28.6048050  16.5445440  27.7614860  28.6025340  15.8847720
  29.1972560  28.1807370  16.1139610  28.0199630  30.2310760  20.6193930
  28.4756580  29.4500140  20.9332550  28.3592150  30.9417580  21.1635110
  32.7676440  19.1609610  30.9518370  32.1520710  19.6689280  30.4233830
  32.4472860  18.2607940  30.8944310  15.7702180  26.0027220  27.7784670
  15.9333220  25.5332580  26.9604040  16.2354630  25.4950780  28.4433510
  20.5420950  15.1332980  22.8145240  20.0989100  15.9142520  22.4829760
  21.1005940  15.4562870  23.5216180  24.8290760  18.0001500  28.4180560
  24.3670130  18.2084520  29.2300500  24.4268870  17.1860850  28.1151230
  29.8295270  19.2210450  29.5477220  28.9788860  18.9216200  29.8686290
  29.6697060  19.4652460  28.6361040  26.9244980  20.7212200  31.6476010
  27.2498390  19.8875950  31.3078240  27.7125310  21.2440720  31.7954340
  23.6579770  14.7543680  17.6951070  23.0333950  14.7503550  18.4204380
  23.5709890  13.8874640  17.2987040  22.5796850  15.6780310  24.6734840
  22.8769180  16.5843140  24.5926860  23.1282410  15.1899090  24.0594410
  20.3335170  20.2566550  20.5426490  20.1076090  20.0403720  21.4473110
  19.5527700  20.6895010  20.1972460  27.5632930  20.2629920  19.1417140
  26.9641820  20.9865720  18.9580760  28.1112540  20.2006700  18.3593590
  22.7734380  21.1552130  31.2086760  22.6777980  20.2146860  31.0587160
  23.6166360  21.3767200  30.8134830  26.1697800  18.8993460  21.1720420
  26.5627370  19.2165660  20.3589110  26.5314650  18.0205340  21.2864940
  17.9044920  17.5665800  29.3620540  17.5108310  18.4141010  29.5693320
  17.2163320  16.9292170  29.5529180  24.4789970  17.6500770  32.4317280
  23.7888290  17.4572970  33.0663370  25.2222270  17.9335410  32.9641580
  15.2061970  15.4894260  23.3950620  14.9175020  16.0597120  24.1075600
  15.9507730  15.0098710  23.7581850  15.3932200  19.4314380  14.6053340
  15.3106870  20.3745140  14.7468330  15.0415260  19.2889290  13.7265690
  26.7552940  21.4899210  25.2671200  26.0234060  21.9986020  25.6161300
  26.3577280  20.6729190  24.9659980  23.1930330  18.1653410  23.6723690
  23.1966390  17.7243360  22.8228230  24.0881450  18.4870740  23.7795510
  19.0432710  18.0479900  22.6317900  18.7032760  18.5255130  23.3884950
  18.2810030  17.5945020  22.2719000  23.2550480  19.1665490  16.6630450
  23.3763300  19.1251970  17.6116270  22.8698990  20.0289640  16.5077180
  27.2178850  16.9432890  24.6794140  27.2351590  17.3941540  25.5235990
  26.9694430  16.0438530  24.8927580  22.2671980  21.4766630  16.0613750
  21.6988880  21.0284880  15.4349660  22.9760980  21.8359410  15.5278900
  30.6449600  14.3565070  30.5180520  30.9695370  13.6254730  31.0438500
  30.6806110  14.0378710  29.6161510  17.3441160  25.3778650  29.9380480
  16.9595950  24.7372320  30.5363440  17.6553350  26.0814770  30.5075210
  23.4938300  22.2255190  25.4189100  23.8608430  21.7513760  26.1650440
  23.3043360  23.0996760  25.7597440  16.3578790  16.9698880  21.5482570
  16.0725710  16.6054550  22.3861190  16.2957650  16.2379340  20.9345710
  21.2837670  21.2663830  27.7373310  20.9794740  22.1455810  27.9623670
  22.2384130  21.3263620  27.7730750  19.8119460  25.4724820  18.3340160
  19.0381720  24.9322440  18.1738880  20.5414090  24.9531430  17.9957920
  30.5707440  24.4690180  24.1266550  31.2906560  24.9645470  23.7362660
  30.3689260  23.7908070  23.4820420  26.0317380  15.8628140  18.2695940
  25.2181990  15.3641310  18.1941250  25.8379330  16.7026390  17.8532290
  28.7465770  20.2347790  16.5658100  29.6345390  20.5465020  16.3909440
  28.7170860  19.3620040  16.1738680  19.8556860  25.1405200  21.9718970
  20.3735530  24.3373460  21.9175860  19.4040880  25.0784340  22.8135800
  24.7426360  26.4071480  17.2446270  25.0842060  27.1513710  16.7489590
  23.9139070  26.7202600  17.6071100  17.3401400  22.1066570  28.8844670
  16.9816340  22.7720420  29.4718010  17.0455960  21.2750120  29.2557290
  20.5414520  22.5650810  31.7684220  20.2414660  22.7107990  30.8712040
  21.3125760  22.0056100  31.6757610  31.0180040  21.5459630  16.0337960
  30.9343760  21.9773850  15.1834400  31.7374230  22.0057980  16.4664780
  32.0467290  28.4001890  18.7620090  31.4043450  27.7457510  19.0363810
  31.6597950  28.8056980  17.9860760  27.6253770  25.7287320  22.6091780
  27.9777590  25.1315450  21.9493150  26.7416100  25.4031550  22.7800030
  23.7117050  26.4885010  20.0162190  24.3988180  27.0354220  20.3969780
  22.9249470  27.0325740  20.0511800  15.8509450  22.1057830  15.5079270
  16.7204300  22.3882630  15.7915190  15.3599770  22.9193700  15.3928080
  23.0144260  23.4931040  19.6287550  23.4707040  24.3036290  19.8547740
  22.6632470  23.1754180  20.4606040  25.3176870  29.0037380  26.8579850
  25.9619090  29.2096760  27.5353270  25.6806310  28.2425780  26.4050700
  18.9156040  13.8368690  20.1010070  18.7870670  13.8286590  21.0494990
  18.0918060  14.1751780  19.7501080  26.5908950  27.0069730  25.5757300
  27.2331180  26.3062890  25.6889470  27.1158300  27.7868170  25.3954190
  30.4364670  27.2918350  15.2996440  30.2102250  26.5748790  15.8921080
  30.0460870  27.0430790  14.4618190  16.2180700  31.3185210  16.0740900
  16.5778340  31.9174550  15.4198170  16.0773040  31.8645100  16.8475930
  15.9149970  15.5959810  29.5616770  15.2008490  15.7956730  30.1669380
  16.3345010  14.8199380  29.9331570  30.0180920  25.2090290  16.9610600
  29.7302620  25.6702980  17.7488480  30.8133090  24.7488060  17.2294820
  16.2022560  29.5840070  30.5483300  16.3113680  28.6434810  30.4078690
  15.5503120  29.8494820  29.8997030  22.2349320  28.7016410  16.8914570
  22.2259420  29.4346100  16.2759080  21.3147680  28.4547990  16.9841530
  17.8355960  23.9231300  17.6361330  17.2283910  24.6630200  17.6456630
  18.3105310  24.0130660  16.8099530  27.4088750  18.0882120  27.3118220
  27.7769570  17.2677330  27.6397790  26.5486950  18.1484010  27.7273870
  30.7750780  17.0439060  18.1205780  30.1463940  17.1484730  17.4064010
  30.2802700  17.2635840  18.9099660  25.2208920  28.7644650  15.5539760
  25.3220900  28.5608640  14.6241740  24.3210660  28.5102930  15.7587540
  22.7434810  19.3225010  19.5363660  22.0350960  19.7911350  19.9777270
  23.0279290  18.6647020  20.1708850  24.3690740  20.7421710  27.5356190
  24.8675990  21.2167530  28.2008040  24.5113690  19.8185230  27.7426220
  26.7750240  16.0475670  20.9759450  26.6518020  16.0661800  20.0268960
  27.7234800  16.0954610  21.0957850  23.8627030  31.2830970  20.2487430
  24.1168530  31.2452360  19.3266800  22.9139510  31.1564300  20.2415680
  20.9469830  17.6310090  16.9114370  21.7960360  18.0680240  16.8454560
  20.5801100  17.9430350  17.7386430  31.5757600  16.9589670  28.3784580
  31.0731200  17.6995070  28.7178390  32.3914260  17.3473670  28.0621370
  29.8679610  22.2022850  21.8245940  28.9269750  22.2173080  21.9993630
  30.1823680  21.4158810  22.2706240  19.8461250  23.8842450  15.3849900
  20.6124520  23.7723810  15.9475330  19.9235940  23.1880420  14.7326670
  18.5408010  21.3167520  16.0682790  18.6211600  20.3695030  16.1800190
  19.4327760  21.6474400  16.1743450  31.8705190  29.3731700  23.5000200
  31.9952610  30.1962870  23.9724010  32.7370750  29.1622430  23.1524350
  19.3422720  31.4662910  23.1717330  20.0785200  30.9178370  23.4425900
  19.7263640  32.3318920  23.0323320  16.2268200  27.5336480  19.0458840
  15.3007980  27.7757620  19.0364250  16.6924630  28.3610740  18.9243590
  18.3481000  30.6508980  32.3602910  19.1493730  30.9721030  32.7738310
  17.8332820  30.2904560  33.0822820  22.4525030  30.6393220  14.9942900
  23.2453640  30.9282050  14.5424690  21.9329380  30.2085390  14.3155380
  31.5055200  29.8663350  16.4179640  31.2196710  29.4528490  15.6033820
  31.3074750  30.7951060  16.2980160  16.0678810  23.1382440  31.3038960
  16.5717830  22.5589720  31.8755190  15.3286230  23.4222670  31.8415330
  22.9702430  25.8596630  14.8585250  22.8653070  25.2448980  15.5846630
  22.8026650  25.3362520  14.0748260  26.2105160  24.9216660  15.4627240
  25.6615260  25.3685960  16.1069980  26.8324420  24.4165910  15.9864910
  18.1001890  21.2812030  32.1989030  18.1407230  20.9825900  33.1074260
  18.9547390  21.6819640  32.0396550  21.8780280  23.8807580  17.3592540
  22.2996700  23.7147450  18.2023930  22.0031120  23.0707810  16.8647680
  20.0407700  19.8604130  30.1663520  19.5104160  19.3695080  29.5386860
  20.7095770  20.2888330  29.6321450  24.3907920  22.9045190  14.6069640
  24.9113580  22.1894210  14.2410790  25.0376320  23.5431060  14.9070150
  28.9385760  24.3273590  29.9304710  29.3526780  24.4818670  30.7795130
  28.0036760  24.4528810  30.0930490  29.4107930  21.6669750  31.9343860
  29.9928700  20.9122070  31.8464340  29.5869700  22.1977190  31.1575340
  20.5280000  16.8266500  30.2460810  20.4336870  16.2087250  29.5211680
  19.9477390  17.5532790  30.0190720  23.2941440  15.3839740  27.2788200
  22.8458740  15.4064000  26.4333750  22.6606640  14.9858760  27.8758500
  23.7000990  24.2794070  27.9000640  24.1189100  25.1226800  27.7276880
  22.7809620  24.4166110  27.6707420  26.0364890  22.0110250  29.2838480
  26.1561100  21.4151390  30.0233320  26.8958890  22.0479940  28.8639780
  28.3752790  22.5647440  27.8600990  27.8488010  23.0890060  27.2566130
  28.7184130  23.1974830  28.4910720  20.7739180  19.9540810  14.3050700
  20.5728240  19.0908170  14.6664040  20.6031230  19.8674170  13.3672300
  22.8033660  18.5531600  30.5414300  23.3933350  18.2447450  31.2292120
  21.9853900  18.0811350  30.6974200  27.6227090  18.1697410  30.7747320
  26.9342610  17.5078950  30.7097310  28.3433110  17.7235680  31.2195780
  28.2527490  14.7649040  16.8337580  28.5329780  13.9216940  17.1897000
  27.4793220  14.9972150  17.3476330  19.5721980  17.0541430  14.2928580
  19.8747880  17.0608860  13.3847730  20.3116570  16.7039290  14.7896240
  22.7906910  15.9976050  15.2784780  22.4428910  15.3200040  14.6987230
  22.9919680  15.5365560  16.0928170  24.9555950  30.9856800  16.8971380
  25.8506740  31.3241770  16.9190140  24.9873580  30.2636210  16.2695660
  18.5952110  26.3583850  15.1258380  19.0326980  26.9013520  15.7815960
  19.0799840  25.5330800  15.1354720  15.8097910  29.1472880  22.5778640
  16.1400920  28.2793940  22.3457280  16.2388910  29.3531400  23.4083600
  20.4059830  27.4781890  20.2380610  20.1055370  27.3546860  21.1384520
  20.2997320  26.6190480  19.8296340  16.2988120  30.0143470  25.3160270
  15.8619110  30.1944270  26.1484420  16.8665800  30.7718090  25.1741990
  33.1751750  27.2578290  14.9407290  32.3444710  27.3254940  15.4114520
  33.3523580  28.1482410  14.6374150  32.6308210  24.0025770  17.4441490
  33.3927120  24.5722420  17.5501180  32.6462580  23.4352970  18.2149800
  16.1312550  22.5263700  21.6749150  15.4761390  22.2575340  21.0308850
  16.9690500  22.4168180  21.2251130  33.6368180  24.8575870  22.2883420
  34.0077010  24.0743190  21.8819390  34.2770110  25.5464970  22.1100720
  32.6827380  24.2960140  14.6014010  32.9576220  25.2039020  14.4733230
  32.4938120  24.2322670  15.5376000  29.0802990  17.3204990  15.8967640
  29.4987870  17.1335970  15.0564300  28.7739050  16.4684040  16.2070570
  32.5792720  22.2329130  19.5943440  32.2036320  21.4657060  19.1624730
  31.8495840  22.6151830  20.0818370  17.1688480  22.9116270  26.2152490
  17.5361520  22.8243670  27.0948510  16.5999300  22.1482820  26.1159350
  31.9692340  21.3800650  29.2282960  31.7378430  21.1513400  28.3280910
  32.2296890  22.3000200  29.1827850  16.7204480  19.8225360  30.1210910
  15.8260530  19.7892120  30.4604620  17.2602030  20.0212150  30.8862160
  30.4080410  16.6057080  32.0062660  31.2850590  16.6140480  32.3896660
  30.4201250  15.8687920  31.3955010  15.3450630  19.7362630  17.6174480
  14.4414710  19.9992830  17.4426140  15.8291250  20.0073800  16.8374440
  31.8543680  20.4586620  22.8950680  32.3781160  19.9649270  22.2640850
  32.4403100  20.5936980  23.6398250  32.0333400  20.5426490  26.4170230
  31.0836110  20.5090030  26.5315220  32.2146410  21.4526600  26.1820000
  17.8877840  18.7928170  15.5268860  18.5969540  18.3711390  15.0416140
  17.1717780  18.8603400  14.8952210  17.5352000  14.8467500  14.5671510
  18.2580130  15.3876440  14.8852730  17.8076520  14.5730920  13.6913050
  31.3443650  19.7159970  18.8343090  31.8402770  19.4830840  19.6191970
  31.1459720  18.8771810  18.4180730  17.2244190  14.0973690  24.4694130
  17.8720380  13.5471070  24.0289290  17.6446030  14.3516840  25.2909940
  32.7730810  18.3520920  21.3680770  32.6630090  18.1976960  22.3063040
  33.5338400  17.8241860  21.1256180  31.1196530  14.2915050  27.8263770
  31.7568750  14.9049190  28.1922960  31.2671420  14.3275710  26.8813000
  33.6621080  16.1828840  14.6086910  34.5870390  16.0510020  14.4005200
  33.6396870  16.2621660  15.5623360  33.7359570  16.9539500  17.2343620
  32.9411070  16.8884620  17.7636530  33.9402850  17.8890140  17.2228970
  30.6777990  30.9931050  21.2282010  31.2737060  30.6715620  20.5516430
  30.9356140  30.5202870  22.0195280  16.9776190  14.2529360  27.2119450
  16.6291010  14.7093180  27.9777630  16.6463890  13.3586490  27.2941880
  22.2846590  28.9808550  26.9782360  22.0437950  29.2483110  26.0912880
  23.2249230  29.1514280  27.0333220  24.4901010  15.4441240  30.7338870
  24.4289900  16.0363070  31.4834280  25.4301390  15.3367200  30.5889130
  27.1275570  15.1011300  30.3731160  27.7415980  15.4190590  29.7112240
  27.6725130  14.6159890  30.9927020  17.6496830  13.7805560  30.4870220
  18.1979820  13.5993610  29.7236330  17.7152140  12.9899670  31.0226530
  18.4228590  30.3711210  28.4970420  17.8288910  30.2395910  29.2360460
  18.4152430  29.5349350  28.0312520  27.8683610  13.6643440  26.7000450
  26.9943450  13.9978550  26.4973380  27.7594360  13.1916620  27.5252320
  28.7755590  15.8714310  28.0842170  28.4468950  15.0566070  27.7043900
  29.7237890  15.8284120  27.9607860  18.0540820  27.7369590  27.4478460
  17.3274880  27.1174880  27.3804410  18.1149970  28.1310200  26.5776540
  21.6585920  29.9514590  24.2327870  22.1750940  29.3401950  23.7076130
  22.3083300  30.4543370  24.7238880  24.3981420  30.8423080  25.0596850
  24.6859230  30.5877380  24.1829860  24.9104640  30.2900440  25.6502420
  25.6158430  14.5813280  25.6393360  24.8330220  15.0558780  25.9190120
  25.3221360  13.6768110  25.5306540  30.1679500  15.2836380  23.6842450
  30.6087590  15.2281480  22.8364050  29.8987090  16.1994390  23.7552630
  32.0318070  14.9151620  21.6951270  31.9706470  13.9712840  21.5482290
  32.8110100  15.0231710  22.2404730  16.3370820  31.0543980  20.6575220
  16.1692860  30.4214660  21.3557110  15.4705330  31.2603380  20.3069410
  16.9598840  14.8860760  18.1607080  17.7178200  14.9989640  17.5871110
  16.4976010  15.7229960  18.1150510  23.5012650  17.0000030  21.1509390
  22.6887160  16.6256920  20.8105270  24.0054290  16.2445110  21.4530580
  28.0037630  13.6642480  22.3892460  28.6067000  14.2362690  22.8640980
  27.2630620  14.2281920  22.1666360  31.1472230  14.0664040  17.6632740
  31.3422860  14.9647490  17.9300170  30.3602100  13.8351120  18.1565690
  17.9433520  29.7477210  18.1025360  17.4181140  30.1285240  17.3987320
  17.8678100  30.3727980  18.8235070  19.3323990  15.4124810  16.7009050
  19.8616750  14.6254610  16.5717000  19.9652310  16.0916000  16.9344580
  21.5261830  15.1499950  19.7554440  20.8964570  14.4487260  19.9224570
  20.9866970  15.9104080  19.5387600  32.6998840  31.3064750  19.4239300
  32.8751030  30.6202490  18.7800220  32.0020410  31.8311800  19.0315970
  21.6517390  14.4283930  32.1906930  21.3701660  14.9317530  31.4267750
  22.0337090  13.6305680  31.8249060  20.5426490  31.6959590  16.9774610
  21.2745310  31.4118870  16.4298500  20.8020160  31.4572870  17.8673990
  19.7041280  27.8124320  16.9820940  19.0750160  28.2809420  17.5306770
  19.8189110  26.9673540  17.4167130  28.2532850  13.8437510  32.7687400
  28.1398300  14.1632120  33.6638920  29.0702590  14.2450020  32.4724680
  27.1591000  21.8629980   3.1322140  27.0785050  20.9484590   2.8613850
  26.7455420  22.3597050   2.4261850  25.2909040  23.6409000   5.0131410
  24.5151140  23.1609440   5.3029980  25.9421970  22.9614650   4.8387570
  19.3074870  23.9528810   5.8907170  18.4759750  23.6977520   6.2903680
  19.9155850  24.0239580   6.6265090  29.3116470  28.0469190   3.7930540
  28.8498000  27.2756430   4.1217710  30.1242020  28.0735260   4.2982990
  19.2876130  27.9868900   6.0865190  19.5904170  27.0966640   5.9075410
  20.0319720  28.5439120   5.8587440  15.6799830  21.5136350   5.5589260
  16.2515940  20.7458550   5.5592900  15.6801370  21.8125110   4.6495870
  25.5379780  30.3327200   3.4134530  24.9191220  30.7884700   2.8428970
  26.3931560  30.4878660   3.0124230  24.7318030  26.3166190   5.0201570
  24.6626310  25.3756130   4.8590700  25.4937890  26.4067600   5.5924140
  16.9224700  16.9220710   7.3458190  16.7427540  16.0246460   7.6260950
  16.5204780  17.4692580   8.0205140  25.7623200  19.1236570   5.2470500
  26.1388020  18.2508450   5.1344170  25.6642710  19.4595270   4.3560940
  29.5447320  16.6187010   2.1798840  30.3656940  16.1283580   2.2224320
  29.5781400  17.2084670   2.9330680  17.5411370  19.4181210   5.9540530
  18.2221480  19.6819580   6.5727930  17.2259420  18.5782080   6.2878540
  21.7335940  20.4648570   5.0413120  22.2414160  20.9629540   5.6818140
  22.2649180  19.6883770   4.8652480  33.8346870  18.6353760   8.7442470
  33.1299040  19.0235470   8.2257580  34.1004790  19.3304050   9.3463400
  20.0172040  15.1047130   9.3076540  20.0190480  15.6219520   8.5022440
  19.1876350  14.6277310   9.2846470  21.2674890  24.7442310   7.4850040
  20.9344270  25.3711230   8.1271110  21.4441570  25.2704190   6.7051710
  29.7808800  18.5587390   4.9526380  29.0764370  18.8472280   5.5329490
  30.1420960  19.3687500   4.5925940  19.6987370  16.8157090   7.3146990
  20.0404180  17.6599140   7.0200860  18.7603180  16.9640830   7.4312330
  20.4793990  26.7123110   9.2999220  21.0967990  27.3874190   9.0183670
  19.6187110  27.1211090   9.2086720  31.3971580  28.1762520   7.2153860
  30.7135100  28.8461630   7.2070530  31.9365870  28.3743170   6.4498720
  32.8495720  18.0042180   5.3435590  31.9020630  18.0381160   5.4751020
  33.1745710  18.8181130   5.7284950  23.3815260  14.3039360   3.6391580
  23.6890240  13.7486250   2.9227080  22.4515960  14.4383820   3.4564570
  28.9330320  30.0206650   5.9299040  28.9457480  29.6168940   5.0621300
  28.3805540  30.7953940   5.8260470  28.3315760  24.9236490   7.2581650
  28.7484550  24.7096600   6.4235110  29.0555580  25.1809280   7.8290270
  32.2777860  23.3223710   7.3497890  31.4496490  23.3916800   6.8748020
  32.8728340  23.9078020   6.8813720  29.2419870  20.1093030   8.2952760
  28.8291050  20.9346740   8.5492750  28.5095820  19.5238070   8.1029120
  21.3752660  22.8952930   3.1571430  20.9709660  22.1830180   2.6617330
  21.4615780  22.5506170   4.0459470  21.8434360  26.5820490   5.3210640
  21.5462650  25.9765960   4.6418420  22.7934180  26.6197800   5.2100000
  20.0881280  19.6696140   6.9370470  20.6395870  19.7791480   6.1623720
  20.6024790  20.0433740   7.6525700  29.9319970  30.1552360   8.9833740
  29.4550530  30.9624550   8.7906350  29.2481760  29.5030690   9.1359950
  20.9352790  26.3202180  11.9718440  20.0381320  26.5442150  12.2191840
  20.9605660  26.4437120  11.0229840  19.7624010  23.1915500  10.5475810
  19.6231780  24.0638300  10.9163210  18.8805370  22.8488310  10.4023750
  26.0853390  28.1091370   1.8540940  26.5249300  28.8515700   1.4396330
  26.0240280  28.3517940   2.7779900  21.5604360  29.1337200  12.7560960
  21.5319790  29.5380150  11.8889390  21.3969330  28.2047560  12.5932560
  33.5119180  29.9164300  14.0525130  33.9878900  30.3947190  14.7314210
  34.1326340  29.8481790  13.3270630  15.7142660  24.9613050   6.4646720
  15.7923080  25.0961820   5.5202440  16.3284340  24.2528940   6.6574840
  16.9590290  26.6613240   2.8752900  16.5518370  26.8027830   2.0206500
  17.8503300  26.3773400   2.6724110  32.9152430  27.1077150  11.2125140
  33.0415490  26.8689030  10.2942320  32.9573810  26.2761690  11.6847220
  26.7769170  30.8105150   9.7819950  27.2913840  30.7213160  10.5842380
  25.9338250  31.1564850  10.0747860  28.0199630  30.2310760   1.8450440
  28.4756580  29.4500140   2.1589060  28.3592150  30.9417580   2.3891620
  32.7676440  19.1609610  12.1774880  32.1520710  19.6689280  11.6490340
  32.4472860  18.2607940  12.1200820  15.7702180  26.0027220   9.0041180
  15.9333220  25.5332580   8.1860550  16.2354630  25.4950780   9.6690020
  20.5420950  15.1332980   4.0401750  20.0989100  15.9142520   3.7086270
  21.1005940  15.4562870   4.7472690  24.8290760  18.0001500   9.6437070
  24.3670130  18.2084520  10.4557010  24.4268870  17.1860850   9.3407740
  29.8295270  19.2210450  10.7733730  28.9788860  18.9216200  11.0942800
  29.6697060  19.4652460   9.8617550  26.9244980  20.7212200  12.8732520
  27.2498390  19.8875950  12.5334750  27.7125310  21.2440720  13.0210850
  22.5796850  15.6780310   5.8991350  22.8769180  16.5843140   5.8183370
  23.1282410  15.1899090   5.2850920  20.3335170  20.2566550   1.7683000
  20.1076090  20.0403720   2.6729620  19.5527700  20.6895010   1.4228970
  22.7734380  21.1552130  12.4343270  22.6777980  20.2146860  12.2843670
  23.6166360  21.3767200  12.0391340  26.1697800  18.8993460   2.3976930
  26.5627370  19.2165660   1.5845620  26.5314650  18.0205340   2.5121450
  17.9044920  17.5665800  10.5877050  17.5108310  18.4141010  10.7949830
  17.2163320  16.9292170  10.7785690  24.4789970  17.6500770  13.6573790
  23.7888290  17.4572970  14.2919880  25.2222270  17.9335410  14.1898090
  15.2061970  15.4894260   4.6207130  14.9175020  16.0597120   5.3332110
  15.9507730  15.0098710   4.9838360  26.7552940  21.4899210   6.4927710
  26.0234060  21.9986020   6.8417810  26.3577280  20.6729190   6.1916490
  23.1930330  18.1653410   4.8980200  23.1966390  17.7243360   4.0484740
  24.0881450  18.4870740   5.0052020  19.0432710  18.0479900   3.8574410
  18.7032760  18.5255130   4.6141460  18.2810030  17.5945020   3.4975510
  27.2178850  16.9432890   5.9050650  27.2351590  17.3941540   6.7492500
  26.9694430  16.0438530   6.1184090  30.6449600  14.3565070  11.7437030
  30.9695370  13.6254730  12.2695010  30.6806110  14.0378710  10.8418020
  17.3441160  25.3778650  11.1636990  16.9595950  24.7372320  11.7619950
  17.6553350  26.0814770  11.7331720  23.4938300  22.2255190   6.6445610
  23.8608430  21.7513760   7.3906950  23.3043360  23.0996760   6.9853950
  16.3578790  16.9698880   2.7739080  16.0725710  16.6054550   3.6117700
  16.2957650  16.2379340   2.1602220  21.2837670  21.2663830   8.9629820
  20.9794740  22.1455810   9.1880180  22.2384130  21.3263620   8.9987260
  30.5707440  24.4690180   5.3523060  31.2906560  24.9645470   4.9619170
  30.3689260  23.7908070   4.7076930  25.9526240  24.5399240  11.2392060
  25.8863550  23.6194910  10.9849650  25.3231380  24.6374680  11.9536700
  19.8556860  25.1405200   3.1975480  20.3735530  24.3373460   3.1432370
  19.4040880  25.0784340   4.0392310  17.3401400  22.1066570  10.1101180
  16.9816340  22.7720420  10.6974520  17.0455960  21.2750120  10.4813800
  20.5414520  22.5650810  12.9940730  20.2414660  22.7107990  12.0968550
  21.3125760  22.0056100  12.9014120  25.8842970  27.3619810  10.9895860
  25.8987510  26.4300770  10.7714770  25.1768070  27.4479570  11.6285630
  32.0954180  24.0027150  10.3364440  31.3702370  24.5955930  10.1393830
  32.6229640  23.9950690   9.5377810  27.6253770  25.7287320   3.8348290
  27.9777590  25.1315450   3.1749660  26.7416100  25.4031550   4.0056540
  25.3176870  29.0037380   8.0836360  25.9619090  29.2096760   8.7609780
  25.6806310  28.2425780   7.6307210  26.5908950  27.0069730   6.8013810
  27.2331180  26.3062890   6.9145980  27.1158300  27.7868170   6.6210700
  28.3646570  27.8064630  10.0049870  28.7002810  28.3931320  10.6827790
  27.4446910  27.6757340  10.2347660  15.9149970  15.5959810  10.7873280
  15.2008490  15.7956730  11.3925890  16.3345010  14.8199380  11.1588080
  16.2022560  29.5840070  11.7739810  16.3113680  28.6434810  11.6335200
  15.5503120  29.8494820  11.1253540  24.1935150  27.8555960  13.1737930
  23.8732020  27.1365200  13.7183620  23.5193510  28.5311030  13.2473990
  27.4088750  18.0882120   8.5374730  27.7769570  17.2677330   8.8654300
  26.5486950  18.1484010   8.9530380  24.3690740  20.7421710   8.7612700
  24.8675990  21.2167530   9.4264550  24.5113690  19.8185230   8.9682730
  31.5757600  16.9589670   9.6041090  31.0731200  17.6995070   9.9434900
  32.3914260  17.3473670   9.2877880  29.8679610  22.2022850   3.0502450
  28.9269750  22.2173080   3.2250140  30.1823680  21.4158810   3.4962750
  31.8705190  29.3731700   4.7256710  31.9952610  30.1962870   5.1980520
  32.7370750  29.1622430   4.3780860  19.3422720  31.4662910   4.3973840
  20.0785200  30.9178370   4.6682410  19.7263640  32.3318920   4.2579830
  18.3481000  30.6508980  13.5859420  19.1493730  30.9721030  13.9994820
  17.8332820  30.2904560  14.3079330  27.1845630  26.7588850  13.5334830
  26.5783790  26.7820450  12.7930580  26.8799740  26.0271890  14.0702080
  28.6146000  30.4869140  12.1444240  29.5667750  30.4027160  12.0944480
  28.4674220  31.1510850  12.8178030  16.0678810  23.1382440  12.5295470
  16.5717830  22.5589720  13.1011700  15.3286230  23.4222670  13.0671840
  23.1216750  24.5453430  12.0630990  22.3562420  25.1138430  11.9785660
  23.3032710  24.2529640  11.1699220  30.2640100  26.2758760  12.6206010
  31.0049570  26.6134520  12.1173470  29.5012780  26.4450820  12.0675780
  18.1001890  21.2812030  13.4245540  18.1407230  20.9825900  14.3330770
  18.9547390  21.6819640  13.2653060  20.0407700  19.8604130  11.3920030
  19.5104160  19.3695080  10.7643370  20.7095770  20.2888330  10.8577960
  28.9385760  24.3273590  11.1561220  29.3526780  24.4818670  12.0051640
  28.0036760  24.4528810  11.3187000  29.4107930  21.6669750  13.1600370
  29.9928700  20.9122070  13.0720850  29.5869700  22.1977190  12.3831850
  20.5280000  16.8266500  11.4717320  20.4336870  16.2087250  10.7468190
  19.9477390  17.5532790  11.2447230  23.2941440  15.3839740   8.5044710
  22.8458740  15.4064000   7.6590260  22.6606640  14.9858760   9.1015010
  23.7000990  24.2794070   9.1257150  24.1189100  25.1226800   8.9533390
  22.7809620  24.4166110   8.8963930  26.0364890  22.0110250  10.5094990
  26.1561100  21.4151390  11.2489830  26.8958890  22.0479940  10.0896290
  28.3752790  22.5647440   9.0857500  27.8488010  23.0890060   8.4822640
  28.7184130  23.1974830   9.7167230  21.5508410  30.5847080  10.2414880
  21.0129500  31.3093140   9.9223580  21.8042370  30.1077420   9.4512220
  22.8033660  18.5531600  11.7670810  23.3933350  18.2447450  12.4548630
  21.9853900  18.0811350  11.9230710  27.6227090  18.1697410  12.0003830
  26.9342610  17.5078950  11.9353820  28.3433110  17.7235680  12.4452290
  24.4070620  31.8198290  10.5001530  24.3329320  32.7233430  10.8073900
  23.5049460  31.5010190  10.4723600  15.8097910  29.1472880   3.8035150
  16.1400920  28.2793940   3.5713790  16.2388910  29.3531400   4.6340110
  16.2988120  30.0143470   6.5416780  15.8619110  30.1944270   7.3740930
  16.8665800  30.7718090   6.3998500  31.9350300  29.5160470  10.8294090
  31.3352290  29.5753030  10.0858010  32.0644200  28.5765450  10.9590940
  16.1312550  22.5263700   2.9005660  15.4761390  22.2575340   2.2565360
  16.9690500  22.4168180   2.4507640  33.6368180  24.8575870   3.5139930
  34.0077010  24.0743190   3.1075900  34.2770110  25.5464970   3.3357230
  30.6201940  26.2412450   8.9270250  29.8061780  26.6709610   9.1896040
  31.0276140  26.8530860   8.3139300  17.1688480  22.9116270   7.4409000
  17.5361520  22.8243670   8.3205020  16.5999300  22.1482820   7.3415860
  31.9692340  21.3800650  10.4539470  31.7378430  21.1513400   9.5537420
  32.2296890  22.3000200  10.4084360  16.7204480  19.8225360  11.3467420
  15.8260530  19.7892120  11.6861130  17.2602030  20.0212150  12.1118670
  30.4080410  16.6057080  13.2319170  31.2850590  16.6140480  13.6153170
  30.4201250  15.8687920  12.6211520  31.8543680  20.4586620   4.1207190
  32.3781160  19.9649270   3.4897360  32.4403100  20.5936980   4.8654760
  32.0333400  20.5426490   7.6426740  31.0836110  20.5090030   7.7571730
  32.2146410  21.4526600   7.4076510  17.2244190  14.0973690   5.6950640
  17.8720380  13.5471070   5.2545800  17.6446030  14.3516840   6.5166450
  32.7730810  18.3520920   2.5937280  32.6630090  18.1976960   3.5319550
  33.5338400  17.8241860   2.3512690  31.1196530  14.2915050   9.0520280
  31.7568750  14.9049190   9.4179470  31.2671420  14.3275710   8.1069510
  30.6777990  30.9931050   2.4538520  31.2737060  30.6715620   1.7772940
  30.9356140  30.5202870   3.2451790  16.9776190  14.2529360   8.4375960
  16.6291010  14.7093180   9.2034140  16.6463890  13.3586490   8.5198390
  18.5840560  27.4248960  12.6029150  18.5410190  27.0541870  13.4843610
  18.7151570  28.3626530  12.7430970  22.2846590  28.9808550   8.2038870
  22.0437950  29.2483110   7.3169390  23.2249230  29.1514280   8.2589730
  24.4901010  15.4441240  11.9595380  24.4289900  16.0363070  12.7090790
  25.4301390  15.3367200  11.8145640  27.1275570  15.1011300  11.5987670
  27.7415980  15.4190590  10.9368750  27.6725130  14.6159890  12.2183530
  33.5450750  31.0002930   9.0049510  33.0509030  31.3971800   8.2876640
  32.9364040  30.3752140   9.3986790  17.6496830  13.7805560  11.7126730
  18.1979820  13.5993610  10.9492840  17.7152140  12.9899670  12.2483040
  18.4228590  30.3711210   9.7226930  17.8288910  30.2395910  10.4616970
  18.4152430  29.5349350   9.2569030  27.8683610  13.6643440   7.9256960
  26.9943450  13.9978550   7.7229890  27.7594360  13.1916620   8.7508830
  28.7755590  15.8714310   9.3098680  28.4468950  15.0566070   8.9300410
  29.7237890  15.8284120   9.1864370  31.2290200  31.6426350   6.2836250
  30.7693170  32.3942160   5.9094270  30.6002660  30.9232820   6.2251050
  18.0540820  27.7369590   8.6734970  17.3274880  27.1174880   8.6060920
  18.1149970  28.1310200   7.8033050  21.6585920  29.9514590   5.4584380
  22.1750940  29.3401950   4.9332640  22.3083300  30.4543370   5.9495390
  24.3981420  30.8423080   6.2853360  24.6859230  30.5877380   5.4086370
  24.9104640  30.2900440   6.8758930  25.6158430  14.5813280   6.8649870
  24.8330220  15.0558780   7.1446630  25.3221360  13.6768110   6.7563050
  30.1679500  15.2836380   4.9098960  30.6087590  15.2281480   4.0620560
  29.8987090  16.1994390   4.9809140  32.0318070  14.9151620   2.9207780
  31.9706470  13.9712840   2.7738800  32.8110100  15.0231710   3.4661240
  16.3370820  31.0543980   1.8831730  16.1692860  30.4214660   2.5813620
  15.4705330  31.2603380   1.5325920  23.5012650  17.0000030   2.3765900
  22.6887160  16.6256920   2.0361780  24.0054290  16.2445110   2.6787090
  28.0037630  13.6642480   3.6148970  28.6067000  14.2362690   4.0897490
  27.2630620  14.2281920   3.3922870  24.4653780  31.7639180  13.6521560
  25.3921090  31.5283450  13.6957520  24.4504210  32.5911180  13.1707590
  21.6517390  14.4283930  13.4163440  21.3701660  14.9317530  12.6524260
  22.0337090  13.6305680  13.0505570  28.2532850  13.8437510  13.9943910
  28.1398300  14.1632120  14.8895430  29.0702590  14.2450020  13.6981190
  31.0331340  30.9909040  13.4762600  31.8256660  30.4958270  13.2688560
  31.3264490  31.6699180  14.0838210  27.1591000   3.0886490  78.2296100
  27.0785050   2.1741100  77.9587810  26.7455420   3.5853560  77.5235810
  25.2909040   4.8665510  80.1105370  24.5151140   4.3865950  80.4003940
  25.9421970   4.1871160  79.9361530  19.3074870   5.1785320  80.9881130
  18.4759750   4.9234030  81.3877640  19.9155850   5.2496090  81.7239050
  29.3116470   9.2725700  78.8904500  28.8498000   8.5012940  79.2191670
  30.1242020   9.2991770  79.3956950  19.2876130   9.2125410  81.1839150
  19.5904170   8.3223150  81.0049370  20.0319720   9.7695630  80.9561400
  15.6799830   2.7392860  80.6563220  16.2515940   1.9715060  80.6566860
  15.6801370   3.0381620  79.7469830  25.5379780  11.5583710  78.5108490
  24.9191220  12.0141210  77.9402930  26.3931560  11.7135170  78.1098190
  24.7318030   7.5422700  80.1175530  24.6626310   6.6012640  79.9564660
  25.4937890   7.6324110  80.6898100  26.4043130   6.4422950  75.9040400
  25.7860400   6.9072400  75.3403120  26.9166380   7.1350430  76.3209910
  21.2674890   5.9698820  82.5824000  20.9344270   6.5967740  83.2245070
  21.4441570   6.4960700  81.8025670  15.7726330   7.1279480  73.2780030
  15.3954310   7.6166580  72.5464930  16.0299400   7.8004760  73.9086560
  31.3971580   9.4019030  82.3127820  30.7135100  10.0718140  82.3044490
  31.9365870   9.5999680  81.5472680  28.9330320  11.2463160  81.0273000
  28.9457480  10.8425450  80.1595260  28.3805540  12.0210450  80.9234430
  30.2275740   7.9679380  76.1163170  30.1172070   7.0253710  76.2412590
  30.2243990   8.3295020  77.0025930  28.3315760   6.1493000  82.3555610
  28.7484550   5.9353110  81.5209070  29.0555580   6.4065790  82.9264230
  25.7696020   3.5944700  75.4725660  24.8425300   3.5282080  75.7014130
  25.9220840   4.5324830  75.3580900  32.2777860   4.5480220  82.4471850
  31.4496490   4.6173310  81.9721980  32.8728340   5.1334530  81.9787680
  29.7993310   5.1565000  75.9760910  29.1805730   4.8184550  75.3287210
  29.7817760   4.5124760  76.6840100  21.3752660   4.1209440  78.2545390
  20.9709660   3.4086690  77.7591290  21.4615780   3.7762680  79.1433430
  21.8434360   7.8077000  80.4184600  21.5462650   7.2022470  79.7392380
  22.7934180   7.8454310  80.3073960  27.9758010   4.3951810  72.9833660
  28.4151290   3.5574240  72.8371480  28.6886430   5.0281210  73.0697800
  26.0853390   9.3347880  76.9514900  26.5249300  10.0772210  76.5370290
  26.0240280   9.5774450  77.8753860  18.0757290   3.0154420  75.7552040
  17.9554890   3.7416510  75.1433310  17.7658180   2.2457330  75.2779950
  15.7142660   6.1869560  81.5620680  15.7923080   6.3218330  80.6176400
  16.3284340   5.4785450  81.7548800  16.9590290   7.8869750  77.9726860
  16.5518370   8.0284340  77.1180460  17.8503300   7.6029910  77.7698070
  28.7523570  12.3217000  74.3077910  28.5924710  12.0319940  75.2059740
  28.5870280  11.5457130  73.7723140  21.2311950  12.1015530  76.0849530
  21.0554430  11.1851070  75.8717330  20.3767690  12.4602820  76.3247330
  28.4549700   9.8304560  72.8675910  27.7614860   9.8281850  72.2078190
  29.1972560   9.4063880  72.4370080  28.0199630  11.4567270  76.9424400
  28.4756580  10.6756650  77.2563020  28.3592150  12.1674090  77.4865580
  26.7552940   2.7155720  81.5901670  26.0234060   3.2242530  81.9391770
  26.3577280   1.8985700  81.2890450  22.2671980   2.7023140  72.3844220
  21.6988880   2.2541390  71.7580130  22.9760980   3.0615920  71.8509370
  23.4938300   3.4511700  81.7419570  23.8608430   2.9770270  82.4880910
  23.3043360   4.3253270  82.0827910  19.8119460   6.6981330  74.6570630
  19.0381720   6.1578950  74.4969350  20.5414090   6.1787940  74.3188390
  30.5707440   5.6946690  80.4497020  31.2906560   6.1901980  80.0593130
  30.3689260   5.0164580  79.8050890  19.8556860   6.3661710  78.2949440
  20.3735530   5.5629970  78.2406330  19.4040880   6.3040850  79.1366270
  24.7426360   7.6327990  73.5676740  25.0842060   8.3770220  73.0720060
  23.9139070   7.9459110  73.9301570  31.0180040   2.7716140  72.3568430
  30.9343760   3.2030360  71.5064870  31.7374230   3.2314490  72.7895250
  32.0467290   9.6258400  75.0850560  31.4043450   8.9714020  75.3594280
  31.6597950  10.0313490  74.3091230  27.6253770   6.9543830  78.9322250
  27.9777590   6.3571960  78.2723620  26.7416100   6.6288060  79.1030500
  23.7117050   7.7141520  76.3392660  24.3988180   8.2610730  76.7200250
  22.9249470   8.2582250  76.3742270  15.8509450   3.3314340  71.8309740
  16.7204300   3.6139140  72.1145660  15.3599770   4.1450210  71.7158550
  23.0144260   4.7187550  75.9518020  23.4707040   5.5292800  76.1778210
  22.6632470   4.4010690  76.7836510  26.5908950   8.2326240  81.8987770
  27.2331180   7.5319400  82.0119940  27.1158300   9.0124680  81.7184660
  30.4364670   8.5174860  71.6226910  30.2102250   7.8005300  72.2151550
  30.0460870   8.2687300  70.7848660  16.2180700  12.5441720  72.3971370
  16.5778340  13.1431060  71.7428640  16.0773040  13.0901610  73.1706400
  30.0180920   6.4346800  73.2841070  29.7302620   6.8959490  74.0718950
  30.8133090   5.9744570  73.5525290  22.2349320   9.9272920  73.2145040
  22.2259420  10.6602610  72.5989550  21.3147680   9.6804500  73.3072000
  17.8355960   5.1487810  73.9591800  17.2283910   5.8886710  73.9687100
  18.3105310   5.2387170  73.1330000  25.2208920   9.9901160  71.8770230
  25.3220900   9.7865150  70.9472210  24.3210660   9.7359440  72.0818010
  23.8627030  12.5087480  76.5717900  24.1168530  12.4708870  75.6497270
  22.9139510  12.3820810  76.5646150  29.8679610   3.4279360  78.1476410
  28.9269750   3.4429590  78.3224100  30.1823680   2.6415320  78.5936710
  19.8461250   5.1098960  71.7080370  20.6124520   4.9980320  72.2705800
  19.9235940   4.4136930  71.0557140  18.5408010   2.5424030  72.3913260
  18.6211600   1.5951540  72.5030660  19.4327760   2.8730910  72.4973920
  31.8705190  10.5988210  79.8230670  31.9952610  11.4219380  80.2954480
  32.7370750  10.3878940  79.4754820  19.3422720  12.6919420  79.4947800
  20.0785200  12.1434880  79.7656370  19.7263640  13.5575430  79.3553790
  16.2268200   8.7592990  75.3689310  15.3007980   9.0014130  75.3594720
  16.6924630   9.5867250  75.2474060  22.4525030  11.8649730  71.3173370
  23.2453640  12.1538560  70.8655160  21.9329380  11.4341900  70.6385850
  31.5055200  11.0919860  72.7410110  31.2196710  10.6785000  71.9264290
  31.3074750  12.0207570  72.6210630  22.9702430   7.0853140  71.1815720
  22.8653070   6.4705490  71.9077100  22.8026650   6.5619030  70.3978730
  26.2105160   6.1473170  71.7857710  25.6615260   6.5942470  72.4300450
  26.8324420   5.6422420  72.3095380  21.8780280   5.1064090  73.6823010
  22.2996700   4.9403960  74.5254400  22.0031120   4.2964320  73.1878150
  24.3907920   4.1301700  70.9300110  24.9113580   3.4150720  70.5641260
  25.0376320   4.7687570  71.2300620  24.9555950  12.2113310  73.2201850
  25.8506740  12.5498280  73.2420610  24.9873580  11.4892720  72.5926130
  18.5952110   7.5840360  71.4488850  19.0326980   8.1270030  72.1046430
  19.0799840   6.7587310  71.4585190  15.8097910  10.3729390  78.9009110
  16.1400920   9.5050450  78.6687750  16.2388910  10.5787910  79.7314070
  20.4059830   8.7038400  76.5611080  20.1055370   8.5803370  77.4614990
  20.2997320   7.8446990  76.1526810  16.2988120  11.2399980  81.6390740
  15.8619110  11.4200780  82.4714890  16.8665800  11.9974600  81.4972460
  33.1751750   8.4834800  71.2637760  32.3444710   8.5511450  71.7344990
  33.3523580   9.3738920  70.9604620  32.6308210   5.2282280  73.7671960
  33.3927120   5.7978930  73.8731650  32.6462580   4.6609480  74.5380270
  16.1312550   3.7520210  77.9979620  15.4761390   3.4831850  77.3539320
  16.9690500   3.6424690  77.5481600  33.6368180   6.0832380  78.6113890
  34.0077010   5.2999700  78.2049860  34.2770110   6.7721480  78.4331190
  32.6827380   5.5216650  70.9244480  32.9576220   6.4295530  70.7963700
  32.4938120   5.4579180  71.8606470  32.5792720   3.4585640  75.9173910
  32.2036320   2.6913570  75.4855200  31.8495840   3.8408340  76.4048840
  32.0333400   1.7683000  82.7400700  31.0836110   1.7346540  82.8545690
  32.2146410   2.6783110  82.5050470  30.6777990  12.2187560  77.5512480
  31.2737060  11.8972130  76.8746900  30.9356140  11.7459380  78.3425750
  31.2290200  12.8682860  81.3810210  30.7693170  13.6198670  81.0068230
  30.6002660  12.1489330  81.3225010  21.6585920  11.1771100  80.5558340
  22.1750940  10.5658460  80.0306600  22.3083300  11.6799880  81.0469350
  24.3981420  12.0679590  81.3827320  24.6859230  11.8133890  80.5060330
  24.9104640  11.5156950  81.9732890  16.3370820  12.2800490  76.9805690
  16.1692860  11.6471170  77.6787580  15.4705330  12.4859890  76.6299880
  17.9433520  10.9733720  74.4255830  17.4181140  11.3541750  73.7217790
  17.8678100  11.5984490  75.1465540  32.6998840  12.5321260  75.7469770
  32.8751030  11.8459000  75.1030690  32.0020410  13.0568310  75.3546440
  20.5426490  12.9216100  73.3005080  21.2745310  12.6375380  72.7528970
  20.8020160  12.6829380  74.1904460  19.7041280   9.0380830  73.3051410
  19.0750160   9.5065930  73.8537240  19.8189110   8.1930050  73.7397600
  27.1591000   3.0886490  59.4552610  27.0785050   2.1741100  59.1844320
  26.7455420   3.5853560  58.7492320  25.2909040   4.8665510  61.3361880
  24.5151140   4.3865950  61.6260450  25.9421970   4.1871160  61.1618040
  19.3074870   5.1785320  62.2137640  18.4759750   4.9234030  62.6134150
  19.9155850   5.2496090  62.9495560  29.3116470   9.2725700  60.1161010
  28.8498000   8.5012940  60.4448180  30.1242020   9.2991770  60.6213460
  19.2876130   9.2125410  62.4095660  19.5904170   8.3223150  62.2305880
  20.0319720   9.7695630  62.1817910  15.6799830   2.7392860  61.8819730
  16.2515940   1.9715060  61.8823370  15.6801370   3.0381620  60.9726340
  25.5379780  11.5583710  59.7365000  24.9191220  12.0141210  59.1659440
  26.3931560  11.7135170  59.3354700  24.7318030   7.5422700  61.3432040
  24.6626310   6.6012640  61.1821170  25.4937890   7.6324110  61.9154610
  26.4043130   6.4422950  57.1296910  25.7860400   6.9072400  56.5659630
  26.9166380   7.1350430  57.5466420  21.2674890   5.9698820  63.8080510
  20.9344270   6.5967740  64.4501580  21.4441570   6.4960700  63.0282180
  20.4793990   7.9379620  65.6229690  21.0967990   8.6130700  65.3414140
  19.6187110   8.3467600  65.5317190  15.7726330   7.1279480  54.5036540
  15.3954310   7.6166580  53.7721440  16.0299400   7.8004760  55.1343070
  31.3971580   9.4019030  63.5384330  30.7135100  10.0718140  63.5301000
  31.9365870   9.5999680  62.7729190  28.9330320  11.2463160  62.2529510
  28.9457480  10.8425450  61.3851770  28.3805540  12.0210450  62.1490940
  30.2275740   7.9679380  57.3419680  30.1172070   7.0253710  57.4669100
  30.2243990   8.3295020  58.2282440  28.3315760   6.1493000  63.5812120
  28.7484550   5.9353110  62.7465580  29.0555580   6.4065790  64.1520740
  25.7696020   3.5944700  56.6982170  24.8425300   3.5282080  56.9270640
  25.9220840   4.5324830  56.5837410  32.2777860   4.5480220  63.6728360
  31.4496490   4.6173310  63.1978490  32.8728340   5.1334530  63.2044190
  29.7993310   5.1565000  57.2017420  29.1805730   4.8184550  56.5543720
  29.7817760   4.5124760  57.9096610  21.3752660   4.1209440  59.4801900
  20.9709660   3.4086690  58.9847800  21.4615780   3.7762680  60.3689940
  21.8434360   7.8077000  61.6441110  21.5462650   7.2022470  60.9648890
  22.7934180   7.8454310  61.5330470  29.9319970  11.3808870  65.3064210
  29.4550530  12.1881060  65.1136820  29.2481760  10.7287200  65.4590420
  20.9352790   7.5458690  68.2948910  20.0381320   7.7698660  68.5422310
  20.9605660   7.6693630  67.3460310  27.9758010   4.3951810  54.2090170
  28.4151290   3.5574240  54.0627990  28.6886430   5.0281210  54.2954310
  19.7624010   4.4172010  66.8706280  19.6231780   5.2894810  67.2393680
  18.8805370   4.0744820  66.7254220  26.0853390   9.3347880  58.1771410
  26.5249300  10.0772210  57.7626800  26.0240280   9.5774450  59.1010370
  21.5604360  10.3593710  69.0791430  21.5319790  10.7636660  68.2119860
  21.3969330   9.4304070  68.9163030  18.0757290   3.0154420  56.9808550
  17.9554890   3.7416510  56.3689820  17.7658180   2.2457330  56.5036460
  33.5119180  11.1420810  70.3755600  33.9878900  11.6203700  71.0544680
  34.1326340  11.0738300  69.6501100  15.7142660   6.1869560  62.7877190
  15.7923080   6.3218330  61.8432910  16.3284340   5.4785450  62.9805310
  16.9590290   7.8869750  59.1983370  16.5518370   8.0284340  58.3436970
  17.8503300   7.6029910  58.9954580  32.9152430   8.3333660  67.5355610
  33.0415490   8.0945540  66.6172790  32.9573810   7.5018200  68.0077690
  26.7769170  12.0361660  66.1050420  27.2913840  11.9469670  66.9072850
  25.9338250  12.3821360  66.3978330  28.7523570  12.3217000  55.5334420
  28.5924710  12.0319940  56.4316250  28.5870280  11.5457130  54.9979650
  21.2311950  12.1015530  57.3106040  21.0554430  11.1851070  57.0973840
  20.3767690  12.4602820  57.5503840  28.4549700   9.8304560  54.0932420
  27.7614860   9.8281850  53.4334700  29.1972560   9.4063880  53.6626590
  28.0199630  11.4567270  58.1680910  28.4756580  10.6756650  58.4819530
  28.3592150  12.1674090  58.7122090  15.7702180   7.2283730  65.3271650
  15.9333220   6.7589090  64.5091020  16.2354630   6.7207290  65.9920490
  26.7552940   2.7155720  62.8158180  26.0234060   3.2242530  63.1648280
  26.3577280   1.8985700  62.5146960  22.2671980   2.7023140  53.6100730
  21.6988880   2.2541390  52.9836640  22.9760980   3.0615920  53.0765880
  17.3441160   6.6035160  67.4867460  16.9595950   5.9628830  68.0850420
  17.6553350   7.3071280  68.0562190  23.4938300   3.4511700  62.9676080
  23.8608430   2.9770270  63.7137420  23.3043360   4.3253270  63.3084420
  21.2837670   2.4920340  65.2860290  20.9794740   3.3712320  65.5110650
  22.2384130   2.5520130  65.3217730  19.8119460   6.6981330  55.8827140
  19.0381720   6.1578950  55.7225860  20.5414090   6.1787940  55.5444900
  30.5707440   5.6946690  61.6753530  31.2906560   6.1901980  61.2849640
  30.3689260   5.0164580  61.0307400  25.9526240   5.7655750  67.5622530
  25.8863550   4.8451420  67.3080120  25.3231380   5.8631190  68.2767170
  19.8556860   6.3661710  59.5205950  20.3735530   5.5629970  59.4662840
  19.4040880   6.3040850  60.3622780  24.7426360   7.6327990  54.7933250
  25.0842060   8.3770220  54.2976570  23.9139070   7.9459110  55.1558080
  17.3401400   3.3323080  66.4331650  16.9816340   3.9976930  67.0204990
  17.0455960   2.5006630  66.8044270  20.5414520   3.7907320  69.3171200
  20.2414660   3.9364500  68.4199020  21.3125760   3.2312610  69.2244590
  25.8842970   8.5876320  67.3126330  25.8987510   7.6557280  67.0945240
  25.1768070   8.6736080  67.9516100  31.0180040   2.7716140  53.5824940
  30.9343760   3.2030360  52.7321380  31.7374230   3.2314490  54.0151760
  32.0954180   5.2283660  66.6594910  31.3702370   5.8212440  66.4624300
  32.6229640   5.2207200  65.8608280  32.0467290   9.6258400  56.3107070
  31.4043450   8.9714020  56.5850790  31.6597950  10.0313490  55.5347740
  27.6253770   6.9543830  60.1578760  27.9777590   6.3571960  59.4980130
  26.7416100   6.6288060  60.3287010  23.7117050   7.7141520  57.5649170
  24.3988180   8.2610730  57.9456760  22.9249470   8.2582250  57.5998780
  15.8509450   3.3314340  53.0566250  16.7204300   3.6139140  53.3402170
  15.3599770   4.1450210  52.9415060  23.0144260   4.7187550  57.1774530
  23.4707040   5.5292800  57.4034720  22.6632470   4.4010690  58.0093020
  25.3176870  10.2293890  64.4066830  25.9619090  10.4353270  65.0840250
  25.6806310   9.4682290  63.9537680  26.5908950   8.2326240  63.1244280
  27.2331180   7.5319400  63.2376450  27.1158300   9.0124680  62.9441170
  30.4364670   8.5174860  52.8483420  30.2102250   7.8005300  53.4408060
  30.0460870   8.2687300  52.0105170  28.3646570   9.0321140  66.3280340
  28.7002810   9.6187830  67.0058260  27.4446910   8.9013850  66.5578130
  16.2180700  12.5441720  53.6227880  16.5778340  13.1431060  52.9685150
  16.0773040  13.0901610  54.3962910  30.0180920   6.4346800  54.5097580
  29.7302620   6.8959490  55.2975460  30.8133090   5.9744570  54.7781800
  16.2022560  10.8096580  68.0970280  16.3113680   9.8691320  67.9565670
  15.5503120  11.0751330  67.4484010  24.1935150   9.0812470  69.4968400
  23.8732020   8.3621710  70.0414090  23.5193510   9.7567540  69.5704460
  22.2349320   9.9272920  54.4401550  22.2259420  10.6602610  53.8246060
  21.3147680   9.6804500  54.5328510  17.8355960   5.1487810  55.1848310
  17.2283910   5.8886710  55.1943610  18.3105310   5.2387170  54.3586510
  25.2208920   9.9901160  53.1026740  25.3220900   9.7865150  52.1728720
  24.3210660   9.7359440  53.3074520  23.8627030  12.5087480  57.7974410
  24.1168530  12.4708870  56.8753780  22.9139510  12.3820810  57.7902660
  29.8679610   3.4279360  59.3732920  28.9269750   3.4429590  59.5480610
  30.1823680   2.6415320  59.8193220  19.8461250   5.1098960  52.9336880
  20.6124520   4.9980320  53.4962310  19.9235940   4.4136930  52.2813650
  18.5408010   2.5424030  53.6169770  18.6211600   1.5951540  53.7287170
  19.4327760   2.8730910  53.7230430  31.8705190  10.5988210  61.0487180
  31.9952610  11.4219380  61.5210990  32.7370750  10.3878940  60.7011330
  19.3422720  12.6919420  60.7204310  20.0785200  12.1434880  60.9912880
  19.7263640  13.5575430  60.5810300  16.2268200   8.7592990  56.5945820
  15.3007980   9.0014130  56.5851230  16.6924630   9.5867250  56.4730570
  18.3481000  11.8765490  69.9089890  19.1493730  12.1977540  70.3225290
  17.8332820  11.5161070  70.6309800  22.4525030  11.8649730  52.5429880
  23.2453640  12.1538560  52.0911670  21.9329380  11.4341900  51.8642360
  27.1845630   7.9845360  69.8565300  26.5783790   8.0076960  69.1161050
  26.8799740   7.2528400  70.3932550  28.6146000  11.7125650  68.4674710
  29.5667750  11.6283670  68.4174950  28.4674220  12.3767360  69.1408500
  31.5055200  11.0919860  53.9666620  31.2196710  10.6785000  53.1520800
  31.3074750  12.0207570  53.8467140  16.0678810   4.3638950  68.8525940
  16.5717830   3.7846230  69.4242170  15.3286230   4.6479180  69.3902310
  22.9702430   7.0853140  52.4072230  22.8653070   6.4705490  53.1333610
  22.8026650   6.5619030  51.6235240  23.1216750   5.7709940  68.3861460
  22.3562420   6.3394940  68.3016130  23.3032710   5.4786150  67.4929690
  26.2105160   6.1473170  53.0114220  25.6615260   6.5942470  53.6556960
  26.8324420   5.6422420  53.5351890  30.2640100   7.5015270  68.9436480
  31.0049570   7.8391030  68.4403940  29.5012780   7.6707330  68.3906250
  18.1001890   2.5068540  69.7476010  18.1407230   2.2082410  70.6561240
  18.9547390   2.9076150  69.5883530  21.8780280   5.1064090  54.9079520
  22.2996700   4.9403960  55.7510910  22.0031120   4.2964320  54.4134660
  24.3907920   4.1301700  52.1556620  24.9113580   3.4150720  51.7897770
  25.0376320   4.7687570  52.4557130  28.9385760   5.5530100  67.4791690
  29.3526780   5.7075180  68.3282110  28.0036760   5.6785320  67.6417470
  29.4107930   2.8926260  69.4830840  29.9928700   2.1378580  69.3951320
  29.5869700   3.4233700  68.7062320  23.7000990   5.5050580  65.4487620
  24.1189100   6.3483310  65.2763860  22.7809620   5.6422620  65.2194400
  26.0364890   3.2366760  66.8325460  26.1561100   2.6407900  67.5720300
  26.8958890   3.2736450  66.4126760  28.3752790   3.7903950  65.4087970
  27.8488010   4.3146570  64.8053110  28.7184130   4.4231340  66.0397700
  21.5508410  11.8103590  66.5645350  21.0129500  12.5349650  66.2454050
  21.8042370  11.3333930  65.7742690  24.4070620  13.0454800  66.8232000
  24.3329320  13.9489940  67.1304370  23.5049460  12.7266700  66.7954070
  24.9555950  12.2113310  54.4458360  25.8506740  12.5498280  54.4677120
  24.9873580  11.4892720  53.8182640  18.5952110   7.5840360  52.6745360
  19.0326980   8.1270030  53.3302940  19.0799840   6.7587310  52.6841700
  15.8097910  10.3729390  60.1265620  16.1400920   9.5050450  59.8944260
  16.2388910  10.5787910  60.9570580  20.4059830   8.7038400  57.7867590
  20.1055370   8.5803370  58.6871500  20.2997320   7.8446990  57.3783320
  16.2988120  11.2399980  62.8647250  15.8619110  11.4200780  63.6971400
  16.8665800  11.9974600  62.7228970  31.9350300  10.7416980  67.1524560
  31.3352290  10.8009540  66.4088480  32.0644200   9.8021960  67.2821410
  33.1751750   8.4834800  52.4894270  32.3444710   8.5511450  52.9601500
  33.3523580   9.3738920  52.1861130  32.6308210   5.2282280  54.9928470
  33.3927120   5.7978930  55.0988160  32.6462580   4.6609480  55.7636780
  16.1312550   3.7520210  59.2236130  15.4761390   3.4831850  58.5795830
  16.9690500   3.6424690  58.7738110  33.6368180   6.0832380  59.8370400
  34.0077010   5.2999700  59.4306370  34.2770110   6.7721480  59.6587700
  30.6201940   7.4668960  65.2500720  29.8061780   7.8966120  65.5126510
  31.0276140   8.0787370  64.6369770  32.6827380   5.5216650  52.1500990
  32.9576220   6.4295530  52.0220210  32.4938120   5.4579180  53.0862980
  32.5792720   3.4585640  57.1430420  32.2036320   2.6913570  56.7111710
  31.8495840   3.8408340  57.6305350  17.1688480   4.1372780  63.7639470
  17.5361520   4.0500180  64.6435490  16.5999300   3.3739330  63.6646330
  31.9692340   2.6057160  66.7769940  31.7378430   2.3769910  65.8767890
  32.2296890   3.5256710  66.7314830  32.0333400   1.7683000  63.9657210
  31.0836110   1.7346540  64.0802200  32.2146410   2.6783110  63.7306980
  30.6777990  12.2187560  58.7768990  31.2737060  11.8972130  58.1003410
  30.9356140  11.7459380  59.5682260  18.5840560   8.6505470  68.9259620
  18.5410190   8.2798380  69.8074080  18.7151570   9.5883040  69.0661440
  22.2846590  10.2065060  64.5269340  22.0437950  10.4739620  63.6399860
  23.2249230  10.3770790  64.5820200  33.5450750  12.2259440  65.3279980
  33.0509030  12.6228310  64.6107110  32.9364040  11.6008650  65.7217260
  18.4228590  11.5967720  66.0457400  17.8288910  11.4652420  66.7847440
  18.4152430  10.7605860  65.5799500  31.2290200  12.8682860  62.6066720
  30.7693170  13.6198670  62.2324740  30.6002660  12.1489330  62.5481520
  18.0540820   8.9626100  64.9965440  17.3274880   8.3431390  64.9291390
  18.1149970   9.3566710  64.1263520  21.6585920  11.1771100  61.7814850
  22.1750940  10.5658460  61.2563110  22.3083300  11.6799880  62.2725860
  24.3981420  12.0679590  62.6083830  24.6859230  11.8133890  61.7316840
  24.9104640  11.5156950  63.1989400  16.3370820  12.2800490  58.2062200
  16.1692860  11.6471170  58.9044090  15.4705330  12.4859890  57.8556390
  17.9433520  10.9733720  55.6512340  17.4181140  11.3541750  54.9474300
  17.8678100  11.5984490  56.3722050  24.4653780  12.9895690  69.9752030
  25.3921090  12.7539960  70.0187990  24.4504210  13.8167690  69.4938060
  32.6998840  12.5321260  56.9726280  32.8751030  11.8459000  56.3287200
  32.0020410  13.0568310  56.5802950  20.5426490  12.9216100  54.5261590
  21.2745310  12.6375380  53.9785480  20.8020160  12.6829380  55.4160970
  19.7041280   9.0380830  54.5307920  19.0750160   9.5065930  55.0793750
  19.8189110   8.1930050  54.9654110  31.0331340  12.2165550  69.7993070
  31.8256660  11.7214780  69.5919030  31.3264490  12.8955690  70.4068680
  27.1591000   3.0886490  40.6809120  27.0785050   2.1741100  40.4100830
  26.7455420   3.5853560  39.9748830  25.2909040   4.8665510  42.5618390
  24.5151140   4.3865950  42.8516960  25.9421970   4.1871160  42.3874550
  19.3074870   5.1785320  43.4394150  18.4759750   4.9234030  43.8390660
  19.9155850   5.2496090  44.1752070  29.3116470   9.2725700  41.3417520
  28.8498000   8.5012940  41.6704690  30.1242020   9.2991770  41.8469970
  19.2876130   9.2125410  43.6352170  19.5904170   8.3223150  43.4562390
  20.0319720   9.7695630  43.4074420  15.6799830   2.7392860  43.1076240
  16.2515940   1.9715060  43.1079880  15.6801370   3.0381620  42.1982850
  25.5379780  11.5583710  40.9621510  24.9191220  12.0141210  40.3915950
  26.3931560  11.7135170  40.5611210  24.7318030   7.5422700  42.5688550
  24.6626310   6.6012640  42.4077680  25.4937890   7.6324110  43.1411120
  26.4043130   6.4422950  38.3553420  25.7860400   6.9072400  37.7916140
  26.9166380   7.1350430  38.7722930  21.2674890   5.9698820  45.0337020
  20.9344270   6.5967740  45.6758090  21.4441570   6.4960700  44.2538690
  20.4793990   7.9379620  46.8486200  21.0967990   8.6130700  46.5670650
  19.6187110   8.3467600  46.7573700  15.7726330   7.1279480  35.7293050
  15.3954310   7.6166580  34.9977950  16.0299400   7.8004760  36.3599580
  31.3971580   9.4019030  44.7640840  30.7135100  10.0718140  44.7557510
  31.9365870   9.5999680  43.9985700  28.9330320  11.2463160  43.4786020
  28.9457480  10.8425450  42.6108280  28.3805540  12.0210450  43.3747450
  30.2275740   7.9679380  38.5676190  30.1172070   7.0253710  38.6925610
  30.2243990   8.3295020  39.4538950  28.3315760   6.1493000  44.8068630
  28.7484550   5.9353110  43.9722090  29.0555580   6.4065790  45.3777250
  25.7696020   3.5944700  37.9238680  24.8425300   3.5282080  38.1527150
  25.9220840   4.5324830  37.8093920  32.2777860   4.5480220  44.8984870
  31.4496490   4.6173310  44.4235000  32.8728340   5.1334530  44.4300700
  29.7993310   5.1565000  38.4273930  29.1805730   4.8184550  37.7800230
  29.7817760   4.5124760  39.1353120  21.3752660   4.1209440  40.7058410
  20.9709660   3.4086690  40.2104310  21.4615780   3.7762680  41.5946450
  21.8434360   7.8077000  42.8697620  21.5462650   7.2022470  42.1905400
  22.7934180   7.8454310  42.7586980  29.9319970  11.3808870  46.5320720
  29.4550530  12.1881060  46.3393330  29.2481760  10.7287200  46.6846930
  20.9352790   7.5458690  49.5205420  20.0381320   7.7698660  49.7678820
  20.9605660   7.6693630  48.5716820  27.9758010   4.3951810  35.4346680
  28.4151290   3.5574240  35.2884500  28.6886430   5.0281210  35.5210820
  19.7624010   4.4172010  48.0962790  19.6231780   5.2894810  48.4650190
  18.8805370   4.0744820  47.9510730  26.0853390   9.3347880  39.4027920
  26.5249300  10.0772210  38.9883310  26.0240280   9.5774450  40.3266880
  21.5604360  10.3593710  50.3047940  21.5319790  10.7636660  49.4376370
  21.3969330   9.4304070  50.1419540  18.0757290   3.0154420  38.2065060
  17.9554890   3.7416510  37.5946330  17.7658180   2.2457330  37.7292970
  33.5119180  11.1420810  51.6012110  33.9878900  11.6203700  52.2801190
  34.1326340  11.0738300  50.8757610  15.7142660   6.1869560  44.0133700
  15.7923080   6.3218330  43.0689420  16.3284340   5.4785450  44.2061820
  16.9590290   7.8869750  40.4239880  16.5518370   8.0284340  39.5693480
  17.8503300   7.6029910  40.2211090  32.9152430   8.3333660  48.7612120
  33.0415490   8.0945540  47.8429300  32.9573810   7.5018200  49.2334200
  26.7769170  12.0361660  47.3306930  27.2913840  11.9469670  48.1329360
  25.9338250  12.3821360  47.6234840  28.7523570  12.3217000  36.7590930
  28.5924710  12.0319940  37.6572760  28.5870280  11.5457130  36.2236160
  21.2311950  12.1015530  38.5362550  21.0554430  11.1851070  38.3230350
  20.3767690  12.4602820  38.7760350  28.4549700   9.8304560  35.3188930
  27.7614860   9.8281850  34.6591210  29.1972560   9.4063880  34.8883100
  28.0199630  11.4567270  39.3937420  28.4756580  10.6756650  39.7076040
  28.3592150  12.1674090  39.9378600  15.7702180   7.2283730  46.5528160
  15.9333220   6.7589090  45.7347530  16.2354630   6.7207290  47.2177000
  26.7552940   2.7155720  44.0414690  26.0234060   3.2242530  44.3904790
  26.3577280   1.8985700  43.7403470  22.2671980   2.7023140  34.8357240
  21.6988880   2.2541390  34.2093150  22.9760980   3.0615920  34.3022390
  17.3441160   6.6035160  48.7123970  16.9595950   5.9628830  49.3106930
  17.6553350   7.3071280  49.2818700  23.4938300   3.4511700  44.1932590
  23.8608430   2.9770270  44.9393930  23.3043360   4.3253270  44.5340930
  21.2837670   2.4920340  46.5116800  20.9794740   3.3712320  46.7367160
  22.2384130   2.5520130  46.5474240  19.8119460   6.6981330  37.1083650
  19.0381720   6.1578950  36.9482370  20.5414090   6.1787940  36.7701410
  30.5707440   5.6946690  42.9010040  31.2906560   6.1901980  42.5106150
  30.3689260   5.0164580  42.2563910  25.9526240   5.7655750  48.7879040
  25.8863550   4.8451420  48.5336630  25.3231380   5.8631190  49.5023680
  19.8556860   6.3661710  40.7462460  20.3735530   5.5629970  40.6919350
  19.4040880   6.3040850  41.5879290  24.7426360   7.6327990  36.0189760
  25.0842060   8.3770220  35.5233080  23.9139070   7.9459110  36.3814590
  17.3401400   3.3323080  47.6588160  16.9816340   3.9976930  48.2461500
  17.0455960   2.5006630  48.0300780  20.5414520   3.7907320  50.5427710
  20.2414660   3.9364500  49.6455530  21.3125760   3.2312610  50.4501100
  25.8842970   8.5876320  48.5382840  25.8987510   7.6557280  48.3201750
  25.1768070   8.6736080  49.1772610  31.0180040   2.7716140  34.8081450
  30.9343760   3.2030360  33.9577890  31.7374230   3.2314490  35.2408270
  32.0954180   5.2283660  47.8851420  31.3702370   5.8212440  47.6880810
  32.6229640   5.2207200  47.0864790  32.0467290   9.6258400  37.5363580
  31.4043450   8.9714020  37.8107300  31.6597950  10.0313490  36.7604250
  27.6253770   6.9543830  41.3835270  27.9777590   6.3571960  40.7236640
  26.7416100   6.6288060  41.5543520  23.7117050   7.7141520  38.7905680
  24.3988180   8.2610730  39.1713270  22.9249470   8.2582250  38.8255290
  15.8509450   3.3314340  34.2822760  16.7204300   3.6139140  34.5658680
  15.3599770   4.1450210  34.1671570  23.0144260   4.7187550  38.4031040
  23.4707040   5.5292800  38.6291230  22.6632470   4.4010690  39.2349530
  25.3176870  10.2293890  45.6323340  25.9619090  10.4353270  46.3096760
  25.6806310   9.4682290  45.1794190  26.5908950   8.2326240  44.3500790
  27.2331180   7.5319400  44.4632960  27.1158300   9.0124680  44.1697680
  30.4364670   8.5174860  34.0739930  30.2102250   7.8005300  34.6664570
  30.0460870   8.2687300  33.2361680  28.3646570   9.0321140  47.5536850
  28.7002810   9.6187830  48.2314770  27.4446910   8.9013850  47.7834640
  16.2180700  12.5441720  34.8484390  16.5778340  13.1431060  34.1941660
  16.0773040  13.0901610  35.6219420  30.0180920   6.4346800  35.7354090
  29.7302620   6.8959490  36.5231970  30.8133090   5.9744570  36.0038310
  16.2022560  10.8096580  49.3226790  16.3113680   9.8691320  49.1822180
  15.5503120  11.0751330  48.6740520  24.1935150   9.0812470  50.7224910
  23.8732020   8.3621710  51.2670600  23.5193510   9.7567540  50.7960970
  22.2349320   9.9272920  35.6658060  22.2259420  10.6602610  35.0502570
  21.3147680   9.6804500  35.7585020  17.8355960   5.1487810  36.4104820
  17.2283910   5.8886710  36.4200120  18.3105310   5.2387170  35.5843020
  25.2208920   9.9901160  34.3283250  25.3220900   9.7865150  33.3985230
  24.3210660   9.7359440  34.5331030  23.8627030  12.5087480  39.0230920
  24.1168530  12.4708870  38.1010290  22.9139510  12.3820810  39.0159170
  29.8679610   3.4279360  40.5989430  28.9269750   3.4429590  40.7737120
  30.1823680   2.6415320  41.0449730  19.8461250   5.1098960  34.1593390
  20.6124520   4.9980320  34.7218820  19.9235940   4.4136930  33.5070160
  18.5408010   2.5424030  34.8426280  18.6211600   1.5951540  34.9543680
  19.4327760   2.8730910  34.9486940  31.8705190  10.5988210  42.2743690
  31.9952610  11.4219380  42.7467500  32.7370750  10.3878940  41.9267840
  19.3422720  12.6919420  41.9460820  20.0785200  12.1434880  42.2169390
  19.7263640  13.5575430  41.8066810  16.2268200   8.7592990  37.8202330
  15.3007980   9.0014130  37.8107740  16.6924630   9.5867250  37.6987080
  18.3481000  11.8765490  51.1346400  19.1493730  12.1977540  51.5481800
  17.8332820  11.5161070  51.8566310  22.4525030  11.8649730  33.7686390
  23.2453640  12.1538560  33.3168180  21.9329380  11.4341900  33.0898870
  27.1845630   7.9845360  51.0821810  26.5783790   8.0076960  50.3417560
  26.8799740   7.2528400  51.6189060  28.6146000  11.7125650  49.6931220
  29.5667750  11.6283670  49.6431460  28.4674220  12.3767360  50.3665010
  31.5055200  11.0919860  35.1923130  31.2196710  10.6785000  34.3777310
  31.3074750  12.0207570  35.0723650  16.0678810   4.3638950  50.0782450
  16.5717830   3.7846230  50.6498680  15.3286230   4.6479180  50.6158820
  22.9702430   7.0853140  33.6328740  22.8653070   6.4705490  34.3590120
  22.8026650   6.5619030  32.8491750  23.1216750   5.7709940  49.6117970
  22.3562420   6.3394940  49.5272640  23.3032710   5.4786150  48.7186200
  26.2105160   6.1473170  34.2370730  25.6615260   6.5942470  34.8813470
  26.8324420   5.6422420  34.7608400  30.2640100   7.5015270  50.1692990
  31.0049570   7.8391030  49.6660450  29.5012780   7.6707330  49.6162760
  18.1001890   2.5068540  50.9732520  18.1407230   2.2082410  51.8817750
  18.9547390   2.9076150  50.8140040  21.8780280   5.1064090  36.1336030
  22.2996700   4.9403960  36.9767420  22.0031120   4.2964320  35.6391170
  24.3907920   4.1301700  33.3813130  24.9113580   3.4150720  33.0154280
  25.0376320   4.7687570  33.6813640  28.9385760   5.5530100  48.7048200
  29.3526780   5.7075180  49.5538620  28.0036760   5.6785320  48.8673980
  29.4107930   2.8926260  50.7087350  29.9928700   2.1378580  50.6207830
  29.5869700   3.4233700  49.9318830  23.7000990   5.5050580  46.6744130
  24.1189100   6.3483310  46.5020370  22.7809620   5.6422620  46.4450910
  26.0364890   3.2366760  48.0581970  26.1561100   2.6407900  48.7976810
  26.8958890   3.2736450  47.6383270  28.3752790   3.7903950  46.6344480
  27.8488010   4.3146570  46.0309620  28.7184130   4.4231340  47.2654210
  21.5508410  11.8103590  47.7901860  21.0129500  12.5349650  47.4710560
  21.8042370  11.3333930  46.9999200  24.4070620  13.0454800  48.0488510
  24.3329320  13.9489940  48.3560880  23.5049460  12.7266700  48.0210580
  24.9555950  12.2113310  35.6714870  25.8506740  12.5498280  35.6933630
  24.9873580  11.4892720  35.0439150  18.5952110   7.5840360  33.9001870
  19.0326980   8.1270030  34.5559450  19.0799840   6.7587310  33.9098210
  15.8097910  10.3729390  41.3522130  16.1400920   9.5050450  41.1200770
  16.2388910  10.5787910  42.1827090  20.4059830   8.7038400  39.0124100
  20.1055370   8.5803370  39.9128010  20.2997320   7.8446990  38.6039830
  16.2988120  11.2399980  44.0903760  15.8619110  11.4200780  44.9227910
  16.8665800  11.9974600  43.9485480  31.9350300  10.7416980  48.3781070
  31.3352290  10.8009540  47.6344990  32.0644200   9.8021960  48.5077920
  33.1751750   8.4834800  33.7150780  32.3444710   8.5511450  34.1858010
  33.3523580   9.3738920  33.4117640  32.6308210   5.2282280  36.2184980
  33.3927120   5.7978930  36.3244670  32.6462580   4.6609480  36.9893290
  16.1312550   3.7520210  40.4492640  15.4761390   3.4831850  39.8052340
  16.9690500   3.6424690  39.9994620  33.6368180   6.0832380  41.0626910
  34.0077010   5.2999700  40.6562880  34.2770110   6.7721480  40.8844210
  30.6201940   7.4668960  46.4757230  29.8061780   7.8966120  46.7383020
  31.0276140   8.0787370  45.8626280  32.6827380   5.5216650  33.3757500
  32.9576220   6.4295530  33.2476720  32.4938120   5.4579180  34.3119490
  32.5792720   3.4585640  38.3686930  32.2036320   2.6913570  37.9368220
  31.8495840   3.8408340  38.8561860  17.1688480   4.1372780  44.9895980
  17.5361520   4.0500180  45.8692000  16.5999300   3.3739330  44.8902840
  31.9692340   2.6057160  48.0026450  31.7378430   2.3769910  47.1024400
  32.2296890   3.5256710  47.9571340  32.0333400   1.7683000  45.1913720
  31.0836110   1.7346540  45.3058710  32.2146410   2.6783110  44.9563490
  30.6777990  12.2187560  40.0025500  31.2737060  11.8972130  39.3259920
  30.9356140  11.7459380  40.7938770  18.5840560   8.6505470  50.1516130
  18.5410190   8.2798380  51.0330590  18.7151570   9.5883040  50.2917950
  22.2846590  10.2065060  45.7525850  22.0437950  10.4739620  44.8656370
  23.2249230  10.3770790  45.8076710  33.5450750  12.2259440  46.5536490
  33.0509030  12.6228310  45.8363620  32.9364040  11.6008650  46.9473770
  18.4228590  11.5967720  47.2713910  17.8288910  11.4652420  48.0103950
  18.4152430  10.7605860  46.8056010  31.2290200  12.8682860  43.8323230
  30.7693170  13.6198670  43.4581250  30.6002660  12.1489330  43.7738030
  18.0540820   8.9626100  46.2221950  17.3274880   8.3431390  46.1547900
  18.1149970   9.3566710  45.3520030  21.6585920  11.1771100  43.0071360
  22.1750940  10.5658460  42.4819620  22.3083300  11.6799880  43.4982370
  24.3981420  12.0679590  43.8340340  24.6859230  11.8133890  42.9573350
  24.9104640  11.5156950  44.4245910  16.3370820  12.2800490  39.4318710
  16.1692860  11.6471170  40.1300600  15.4705330  12.4859890  39.0812900
  17.9433520  10.9733720  36.8768850  17.4181140  11.3541750  36.1730810
  17.8678100  11.5984490  37.5978560  24.4653780  12.9895690  51.2008540
  25.3921090  12.7539960  51.2444500  24.4504210  13.8167690  50.7194570
  32.6998840  12.5321260  38.1982790  32.8751030  11.8459000  37.5543710
  32.0020410  13.0568310  37.8059460  20.5426490  12.9216100  35.7518100
  21.2745310  12.6375380  35.2041990  20.8020160  12.6829380  36.6417480
  19.7041280   9.0380830  35.7564430  19.0750160   9.5065930  36.3050260
  19.8189110   8.1930050  36.1910620  31.0331340  12.2165550  51.0249580
  31.8256660  11.7214780  50.8175540  31.3264490  12.8955690  51.6325190
  27.1591000   3.0886490  21.9065630  27.0785050   2.1741100  21.6357340
  26.7455420   3.5853560  21.2005340  25.2909040   4.8665510  23.7874900
  24.5151140   4.3865950  24.0773470  25.9421970   4.1871160  23.6131060
  19.3074870   5.1785320  24.6650660  18.4759750   4.9234030  25.0647170
  19.9155850   5.2496090  25.4008580  29.3116470   9.2725700  22.5674030
  28.8498000   8.5012940  22.8961200  30.1242020   9.2991770  23.0726480
  19.2876130   9.2125410  24.8608680  19.5904170   8.3223150  24.6818900
  20.0319720   9.7695630  24.6330930  15.6799830   2.7392860  24.3332750
  16.2515940   1.9715060  24.3336390  15.6801370   3.0381620  23.4239360
  25.5379780  11.5583710  22.1878020  24.9191220  12.0141210  21.6172460
  26.3931560  11.7135170  21.7867720  24.7318030   7.5422700  23.7945060
  24.6626310   6.6012640  23.6334190  25.4937890   7.6324110  24.3667630
  26.4043130   6.4422950  19.5809930  25.7860400   6.9072400  19.0172650
  26.9166380   7.1350430  19.9979440  21.2674890   5.9698820  26.2593530
  20.9344270   6.5967740  26.9014600  21.4441570   6.4960700  25.4795200
  20.4793990   7.9379620  28.0742710  21.0967990   8.6130700  27.7927160
  19.6187110   8.3467600  27.9830210  15.7726330   7.1279480  16.9549560
  15.3954310   7.6166580  16.2234460  16.0299400   7.8004760  17.5856090
  31.3971580   9.4019030  25.9897350  30.7135100  10.0718140  25.9814020
  31.9365870   9.5999680  25.2242210  28.9330320  11.2463160  24.7042530
  28.9457480  10.8425450  23.8364790  28.3805540  12.0210450  24.6003960
  30.2275740   7.9679380  19.7932700  30.1172070   7.0253710  19.9182120
  30.2243990   8.3295020  20.6795460  28.3315760   6.1493000  26.0325140
  28.7484550   5.9353110  25.1978600  29.0555580   6.4065790  26.6033760
  25.7696020   3.5944700  19.1495190  24.8425300   3.5282080  19.3783660
  25.9220840   4.5324830  19.0350430  32.2777860   4.5480220  26.1241380
  31.4496490   4.6173310  25.6491510  32.8728340   5.1334530  25.6557210
  29.7993310   5.1565000  19.6530440  29.1805730   4.8184550  19.0056740
  29.7817760   4.5124760  20.3609630  21.3752660   4.1209440  21.9314920
  20.9709660   3.4086690  21.4360820  21.4615780   3.7762680  22.8202960
  21.8434360   7.8077000  24.0954130  21.5462650   7.2022470  23.4161910
  22.7934180   7.8454310  23.9843490  29.9319970  11.3808870  27.7577230
  29.4550530  12.1881060  27.5649840  29.2481760  10.7287200  27.9103440
  20.9352790   7.5458690  30.7461930  20.0381320   7.7698660  30.9935330
  20.9605660   7.6693630  29.7973330  27.9758010   4.3951810  16.6603190
  28.4151290   3.5574240  16.5141010  28.6886430   5.0281210  16.7467330
  19.7624010   4.4172010  29.3219300  19.6231780   5.2894810  29.6906700
  18.8805370   4.0744820  29.1767240  26.0853390   9.3347880  20.6284430
  26.5249300  10.0772210  20.2139820  26.0240280   9.5774450  21.5523390
  21.5604360  10.3593710  31.5304450  21.5319790  10.7636660  30.6632880
  21.3969330   9.4304070  31.3676050  18.0757290   3.0154420  19.4321570
  17.9554890   3.7416510  18.8202840  17.7658180   2.2457330  18.9549480
  33.5119180  11.1420810  32.8268620  33.9878900  11.6203700  33.5057700
  34.1326340  11.0738300  32.1014120  15.7142660   6.1869560  25.2390210
  15.7923080   6.3218330  24.2945930  16.3284340   5.4785450  25.4318330
  16.9590290   7.8869750  21.6496390  16.5518370   8.0284340  20.7949990
  17.8503300   7.6029910  21.4467600  32.9152430   8.3333660  29.9868630
  33.0415490   8.0945540  29.0685810  32.9573810   7.5018200  30.4590710
  26.7769170  12.0361660  28.5563440  27.2913840  11.9469670  29.3585870
  25.9338250  12.3821360  28.8491350  28.7523570  12.3217000  17.9847440
  28.5924710  12.0319940  18.8829270  28.5870280  11.5457130  17.4492670
  21.2311950  12.1015530  19.7619060  21.0554430  11.1851070  19.5486860
  20.3767690  12.4602820  20.0016860  28.4549700   9.8304560  16.5445440
  27.7614860   9.8281850  15.8847720  29.1972560   9.4063880  16.1139610
  28.0199630  11.4567270  20.6193930  28.4756580  10.6756650  20.9332550
  28.3592150  12.1674090  21.1635110  15.7702180   7.2283730  27.7784670
  15.9333220   6.7589090  26.9604040  16.2354630   6.7207290  28.4433510
  26.7552940   2.7155720  25.2671200  26.0234060   3.2242530  25.6161300
  26.3577280   1.8985700  24.9659980  22.2671980   2.7023140  16.0613750
  21.6988880   2.2541390  15.4349660  22.9760980   3.0615920  15.5278900
  17.3441160   6.6035160  29.9380480  16.9595950   5.9628830  30.5363440
  17.6553350   7.3071280  30.5075210  23.4938300   3.4511700  25.4189100
  23.8608430   2.9770270  26.1650440  23.3043360   4.3253270  25.7597440
  21.2837670   2.4920340  27.7373310  20.9794740   3.3712320  27.9623670
  22.2384130   2.5520130  27.7730750  19.8119460   6.6981330  18.3340160
  19.0381720   6.1578950  18.1738880  20.5414090   6.1787940  17.9957920
  30.5707440   5.6946690  24.1266550  31.2906560   6.1901980  23.7362660
  30.3689260   5.0164580  23.4820420  25.9526240   5.7655750  30.0135550
  25.8863550   4.8451420  29.7593140  25.3231380   5.8631190  30.7280190
  19.8556860   6.3661710  21.9718970  20.3735530   5.5629970  21.9175860
  19.4040880   6.3040850  22.8135800  24.7426360   7.6327990  17.2446270
  25.0842060   8.3770220  16.7489590  23.9139070   7.9459110  17.6071100
  17.3401400   3.3323080  28.8844670  16.9816340   3.9976930  29.4718010
  17.0455960   2.5006630  29.2557290  20.5414520   3.7907320  31.7684220
  20.2414660   3.9364500  30.8712040  21.3125760   3.2312610  31.6757610
  25.8842970   8.5876320  29.7639350  25.8987510   7.6557280  29.5458260
  25.1768070   8.6736080  30.4029120  31.0180040   2.7716140  16.0337960
  30.9343760   3.2030360  15.1834400  31.7374230   3.2314490  16.4664780
  32.0954180   5.2283660  29.1107930  31.3702370   5.8212440  28.9137320
  32.6229640   5.2207200  28.3121300  32.0467290   9.6258400  18.7620090
  31.4043450   8.9714020  19.0363810  31.6597950  10.0313490  17.9860760
  27.6253770   6.9543830  22.6091780  27.9777590   6.3571960  21.9493150
  26.7416100   6.6288060  22.7800030  23.7117050   7.7141520  20.0162190
  24.3988180   8.2610730  20.3969780  22.9249470   8.2582250  20.0511800
  15.8509450   3.3314340  15.5079270  16.7204300   3.6139140  15.7915190
  15.3599770   4.1450210  15.3928080  23.0144260   4.7187550  19.6287550
  23.4707040   5.5292800  19.8547740  22.6632470   4.4010690  20.4606040
  25.3176870  10.2293890  26.8579850  25.9619090  10.4353270  27.5353270
  25.6806310   9.4682290  26.4050700  26.5908950   8.2326240  25.5757300
  27.2331180   7.5319400  25.6889470  27.1158300   9.0124680  25.3954190
  30.4364670   8.5174860  15.2996440  30.2102250   7.8005300  15.8921080
  30.0460870   8.2687300  14.4618190  28.3646570   9.0321140  28.7793360
  28.7002810   9.6187830  29.4571280  27.4446910   8.9013850  29.0091150
  16.2180700  12.5441720  16.0740900  16.5778340  13.1431060  15.4198170
  16.0773040  13.0901610  16.8475930  30.0180920   6.4346800  16.9610600
  29.7302620   6.8959490  17.7488480  30.8133090   5.9744570  17.2294820
  16.2022560  10.8096580  30.5483300  16.3113680   9.8691320  30.4078690
  15.5503120  11.0751330  29.8997030  24.1935150   9.0812470  31.9481420
  23.8732020   8.3621710  32.4927110  23.5193510   9.7567540  32.0217480
  22.2349320   9.9272920  16.8914570  22.2259420  10.6602610  16.2759080
  21.3147680   9.6804500  16.9841530  17.8355960   5.1487810  17.6361330
  17.2283910   5.8886710  17.6456630  18.3105310   5.2387170  16.8099530
  25.2208920   9.9901160  15.5539760  25.3220900   9.7865150  14.6241740
  24.3210660   9.7359440  15.7587540  23.8627030  12.5087480  20.2487430
  24.1168530  12.4708870  19.3266800  22.9139510  12.3820810  20.2415680
  29.8679610   3.4279360  21.8245940  28.9269750   3.4429590  21.9993630
  30.1823680   2.6415320  22.2706240  19.8461250   5.1098960  15.3849900
  20.6124520   4.9980320  15.9475330  19.9235940   4.4136930  14.7326670
  18.5408010   2.5424030  16.0682790  18.6211600   1.5951540  16.1800190
  19.4327760   2.8730910  16.1743450  31.8705190  10.5988210  23.5000200
  31.9952610  11.4219380  23.9724010  32.7370750  10.3878940  23.1524350
  19.3422720  12.6919420  23.1717330  20.0785200  12.1434880  23.4425900
  19.7263640  13.5575430  23.0323320  16.2268200   8.7592990  19.0458840
  15.3007980   9.0014130  19.0364250  16.6924630   9.5867250  18.9243590
  18.3481000  11.8765490  32.3602910  19.1493730  12.1977540  32.7738310
  17.8332820  11.5161070  33.0822820  22.4525030  11.8649730  14.9942900
  23.2453640  12.1538560  14.5424690  21.9329380  11.4341900  14.3155380
  27.1845630   7.9845360  32.3078320  26.5783790   8.0076960  31.5674070
  26.8799740   7.2528400  32.8445570  28.6146000  11.7125650  30.9187730
  29.5667750  11.6283670  30.8687970  28.4674220  12.3767360  31.5921520
  31.5055200  11.0919860  16.4179640  31.2196710  10.6785000  15.6033820
  31.3074750  12.0207570  16.2980160  16.0678810   4.3638950  31.3038960
  16.5717830   3.7846230  31.8755190  15.3286230   4.6479180  31.8415330
  22.9702430   7.0853140  14.8585250  22.8653070   6.4705490  15.5846630
  22.8026650   6.5619030  14.0748260  23.1216750   5.7709940  30.8374480
  22.3562420   6.3394940  30.7529150  23.3032710   5.4786150  29.9442710
  26.2105160   6.1473170  15.4627240  25.6615260   6.5942470  16.1069980
  26.8324420   5.6422420  15.9864910  30.2640100   7.5015270  31.3949500
  31.0049570   7.8391030  30.8916960  29.5012780   7.6707330  30.8419270
  18.1001890   2.5068540  32.1989030  18.1407230   2.2082410  33.1074260
  18.9547390   2.9076150  32.0396550  21.8780280   5.1064090  17.3592540
  22.2996700   4.9403960  18.2023930  22.0031120   4.2964320  16.8647680
  24.3907920   4.1301700  14.6069640  24.9113580   3.4150720  14.2410790
  25.0376320   4.7687570  14.9070150  28.9385760   5.5530100  29.9304710
  29.3526780   5.7075180  30.7795130  28.0036760   5.6785320  30.0930490
  29.4107930   2.8926260  31.9343860  29.9928700   2.1378580  31.8464340
  29.5869700   3.4233700  31.1575340  23.7000990   5.5050580  27.9000640
  24.1189100   6.3483310  27.7276880  22.7809620   5.6422620  27.6707420
  26.0364890   3.2366760  29.2838480  26.1561100   2.6407900  30.0233320
  26.8958890   3.2736450  28.8639780  28.3752790   3.7903950  27.8600990
  27.8488010   4.3146570  27.2566130  28.7184130   4.4231340  28.4910720
  21.5508410  11.8103590  29.0158370  21.0129500  12.5349650  28.6967070
  21.8042370  11.3333930  28.2255710  24.4070620  13.0454800  29.2745020
  24.3329320  13.9489940  29.5817390  23.5049460  12.7266700  29.2467090
  24.9555950  12.2113310  16.8971380  25.8506740  12.5498280  16.9190140
  24.9873580  11.4892720  16.2695660  18.5952110   7.5840360  15.1258380
  19.0326980   8.1270030  15.7815960  19.0799840   6.7587310  15.1354720
  15.8097910  10.3729390  22.5778640  16.1400920   9.5050450  22.3457280
  16.2388910  10.5787910  23.4083600  20.4059830   8.7038400  20.2380610
  20.1055370   8.5803370  21.1384520  20.2997320   7.8446990  19.8296340
  16.2988120  11.2399980  25.3160270  15.8619110  11.4200780  26.1484420
  16.8665800  11.9974600  25.1741990  31.9350300  10.7416980  29.6037580
  31.3352290  10.8009540  28.8601500  32.0644200   9.8021960  29.7334430
  33.1751750   8.4834800  14.9407290  32.3444710   8.5511450  15.4114520
  33.3523580   9.3738920  14.6374150  32.6308210   5.2282280  17.4441490
  33.3927120   5.7978930  17.5501180  32.6462580   4.6609480  18.2149800
  16.1312550   3.7520210  21.6749150  15.4761390   3.4831850  21.0308850
  16.9690500   3.6424690  21.2251130  33.6368180   6.0832380  22.2883420
  34.0077010   5.2999700  21.8819390  34.2770110   6.7721480  22.1100720
  30.6201940   7.4668960  27.7013740  29.8061780   7.8966120  27.9639530
  31.0276140   8.0787370  27.0882790  32.6827380   5.5216650  14.6014010
  32.9576220   6.4295530  14.4733230  32.4938120   5.4579180  15.5376000
  32.5792720   3.4585640  19.5943440  32.2036320   2.6913570  19.1624730
  31.8495840   3.8408340  20.0818370  17.1688480   4.1372780  26.2152490
  17.5361520   4.0500180  27.0948510  16.5999300   3.3739330  26.1159350
  31.9692340   2.6057160  29.2282960  31.7378430   2.3769910  28.3280910
  32.2296890   3.5256710  29.1827850  32.0333400   1.7683000  26.4170230
  31.0836110   1.7346540  26.5315220  32.2146410   2.6783110  26.1820000
  30.6777990  12.2187560  21.2282010  31.2737060  11.8972130  20.5516430
  30.9356140  11.7459380  22.0195280  18.5840560   8.6505470  31.3772640
  18.5410190   8.2798380  32.2587100  18.7151570   9.5883040  31.5174460
  22.2846590  10.2065060  26.9782360  22.0437950  10.4739620  26.0912880
  23.2249230  10.3770790  27.0333220  33.5450750  12.2259440  27.7793000
  33.0509030  12.6228310  27.0620130  32.9364040  11.6008650  28.1730280
  18.4228590  11.5967720  28.4970420  17.8288910  11.4652420  29.2360460
  18.4152430  10.7605860  28.0312520  31.2290200  12.8682860  25.0579740
  30.7693170  13.6198670  24.6837760  30.6002660  12.1489330  24.9994540
  18.0540820   8.9626100  27.4478460  17.3274880   8.3431390  27.3804410
  18.1149970   9.3566710  26.5776540  21.6585920  11.1771100  24.2327870
  22.1750940  10.5658460  23.7076130  22.3083300  11.6799880  24.7238880
  24.3981420  12.0679590  25.0596850  24.6859230  11.8133890  24.1829860
  24.9104640  11.5156950  25.6502420  16.3370820  12.2800490  20.6575220
  16.1692860  11.6471170  21.3557110  15.4705330  12.4859890  20.3069410
  17.9433520  10.9733720  18.1025360  17.4181140  11.3541750  17.3987320
  17.8678100  11.5984490  18.8235070  24.4653780  12.9895690  32.4265050
  25.3921090  12.7539960  32.4701010  24.4504210  13.8167690  31.9451080
  32.6998840  12.5321260  19.4239300  32.8751030  11.8459000  18.7800220
  32.0020410  13.0568310  19.0315970  20.5426490  12.9216100  16.9774610
  21.2745310  12.6375380  16.4298500  20.8020160  12.6829380  17.8673990
  19.7041280   9.0380830  16.9820940  19.0750160   9.5065930  17.5306770
  19.8189110   8.1930050  17.4167130  31.0331340  12.2165550  32.2506090
  31.8256660  11.7214780  32.0432050  31.3264490  12.8955690  32.8581700
  27.1591000   3.0886490   3.1322140  27.0785050   2.1741100   2.8613850
  26.7455420   3.5853560   2.4261850  25.2909040   4.8665510   5.0131410
  24.5151140   4.3865950   5.3029980  25.9421970   4.1871160   4.8387570
  19.3074870   5.1785320   5.8907170  18.4759750   4.9234030   6.2903680
  19.9155850   5.2496090   6.6265090  29.3116470   9.2725700   3.7930540
  28.8498000   8.5012940   4.1217710  30.1242020   9.2991770   4.2982990
  19.2876130   9.2125410   6.0865190  19.5904170   8.3223150   5.9075410
  20.0319720   9.7695630   5.8587440  15.6799830   2.7392860   5.5589260
  16.2515940   1.9715060   5.5592900  15.6801370   3.0381620   4.6495870
  25.5379780  11.5583710   3.4134530  24.9191220  12.0141210   2.8428970
  26.3931560  11.7135170   3.0124230  24.7318030   7.5422700   5.0201570
  24.6626310   6.6012640   4.8590700  25.4937890   7.6324110   5.5924140
  21.2674890   5.9698820   7.4850040  20.9344270   6.5967740   8.1271110
  21.4441570   6.4960700   6.7051710  20.4793990   7.9379620   9.2999220
  21.0967990   8.6130700   9.0183670  19.6187110   8.3467600   9.2086720
  31.3971580   9.4019030   7.2153860  30.7135100  10.0718140   7.2070530
  31.9365870   9.5999680   6.4498720  28.9330320  11.2463160   5.9299040
  28.9457480  10.8425450   5.0621300  28.3805540  12.0210450   5.8260470
  28.3315760   6.1493000   7.2581650  28.7484550   5.9353110   6.4235110
  29.0555580   6.4065790   7.8290270  32.2777860   4.5480220   7.3497890
  31.4496490   4.6173310   6.8748020  32.8728340   5.1334530   6.8813720
  21.3752660   4.1209440   3.1571430  20.9709660   3.4086690   2.6617330
  21.4615780   3.7762680   4.0459470  21.8434360   7.8077000   5.3210640
  21.5462650   7.2022470   4.6418420  22.7934180   7.8454310   5.2100000
  29.9319970  11.3808870   8.9833740  29.4550530  12.1881060   8.7906350
  29.2481760  10.7287200   9.1359950  20.9352790   7.5458690  11.9718440
  20.0381320   7.7698660  12.2191840  20.9605660   7.6693630  11.0229840
  19.7624010   4.4172010  10.5475810  19.6231780   5.2894810  10.9163210
  18.8805370   4.0744820  10.4023750  26.0853390   9.3347880   1.8540940
  26.5249300  10.0772210   1.4396330  26.0240280   9.5774450   2.7779900
  21.5604360  10.3593710  12.7560960  21.5319790  10.7636660  11.8889390
  21.3969330   9.4304070  12.5932560  33.5119180  11.1420810  14.0525130
  33.9878900  11.6203700  14.7314210  34.1326340  11.0738300  13.3270630
  15.7142660   6.1869560   6.4646720  15.7923080   6.3218330   5.5202440
  16.3284340   5.4785450   6.6574840  16.9590290   7.8869750   2.8752900
  16.5518370   8.0284340   2.0206500  17.8503300   7.6029910   2.6724110
  32.9152430   8.3333660  11.2125140  33.0415490   8.0945540  10.2942320
  32.9573810   7.5018200  11.6847220  26.7769170  12.0361660   9.7819950
  27.2913840  11.9469670  10.5842380  25.9338250  12.3821360  10.0747860
  28.0199630  11.4567270   1.8450440  28.4756580  10.6756650   2.1589060
  28.3592150  12.1674090   2.3891620  15.7702180   7.2283730   9.0041180
  15.9333220   6.7589090   8.1860550  16.2354630   6.7207290   9.6690020
  26.7552940   2.7155720   6.4927710  26.0234060   3.2242530   6.8417810
  26.3577280   1.8985700   6.1916490  17.3441160   6.6035160  11.1636990
  16.9595950   5.9628830  11.7619950  17.6553350   7.3071280  11.7331720
  23.4938300   3.4511700   6.6445610  23.8608430   2.9770270   7.3906950
  23.3043360   4.3253270   6.9853950  21.2837670   2.4920340   8.9629820
  20.9794740   3.3712320   9.1880180  22.2384130   2.5520130   8.9987260
  30.5707440   5.6946690   5.3523060  31.2906560   6.1901980   4.9619170
  30.3689260   5.0164580   4.7076930  25.9526240   5.7655750  11.2392060
  25.8863550   4.8451420  10.9849650  25.3231380   5.8631190  11.9536700
  19.8556860   6.3661710   3.1975480  20.3735530   5.5629970   3.1432370
  19.4040880   6.3040850   4.0392310  17.3401400   3.3323080  10.1101180
  16.9816340   3.9976930  10.6974520  17.0455960   2.5006630  10.4813800
  20.5414520   3.7907320  12.9940730  20.2414660   3.9364500  12.0968550
  21.3125760   3.2312610  12.9014120  25.8842970   8.5876320  10.9895860
  25.8987510   7.6557280  10.7714770  25.1768070   8.6736080  11.6285630
  32.0954180   5.2283660  10.3364440  31.3702370   5.8212440  10.1393830
  32.6229640   5.2207200   9.5377810  27.6253770   6.9543830   3.8348290
  27.9777590   6.3571960   3.1749660  26.7416100   6.6288060   4.0056540
  25.3176870  10.2293890   8.0836360  25.9619090  10.4353270   8.7609780
  25.6806310   9.4682290   7.6307210  26.5908950   8.2326240   6.8013810
  27.2331180   7.5319400   6.9145980  27.1158300   9.0124680   6.6210700
  28.3646570   9.0321140  10.0049870  28.7002810   9.6187830  10.6827790
  27.4446910   8.9013850  10.2347660  16.2022560  10.8096580  11.7739810
  16.3113680   9.8691320  11.6335200  15.5503120  11.0751330  11.1253540
  24.1935150   9.0812470  13.1737930  23.8732020   8.3621710  13.7183620
  23.5193510   9.7567540  13.2473990  29.8679610   3.4279360   3.0502450
  28.9269750   3.4429590   3.2250140  30.1823680   2.6415320   3.4962750
  31.8705190  10.5988210   4.7256710  31.9952610  11.4219380   5.1980520
  32.7370750  10.3878940   4.3780860  19.3422720  12.6919420   4.3973840
  20.0785200  12.1434880   4.6682410  19.7263640  13.5575430   4.2579830
  18.3481000  11.8765490  13.5859420  19.1493730  12.1977540  13.9994820
  17.8332820  11.5161070  14.3079330  27.1845630   7.9845360  13.5334830
  26.5783790   8.0076960  12.7930580  26.8799740   7.2528400  14.0702080
  28.6146000  11.7125650  12.1444240  29.5667750  11.6283670  12.0944480
  28.4674220  12.3767360  12.8178030  16.0678810   4.3638950  12.5295470
  16.5717830   3.7846230  13.1011700  15.3286230   4.6479180  13.0671840
  23.1216750   5.7709940  12.0630990  22.3562420   6.3394940  11.9785660
  23.3032710   5.4786150  11.1699220  30.2640100   7.5015270  12.6206010
  31.0049570   7.8391030  12.1173470  29.5012780   7.6707330  12.0675780
  18.1001890   2.5068540  13.4245540  18.1407230   2.2082410  14.3330770
  18.9547390   2.9076150  13.2653060  28.9385760   5.5530100  11.1561220
  29.3526780   5.7075180  12.0051640  28.0036760   5.6785320  11.3187000
  29.4107930   2.8926260  13.1600370  29.9928700   2.1378580  13.0720850
  29.5869700   3.4233700  12.3831850  23.7000990   5.5050580   9.1257150
  24.1189100   6.3483310   8.9533390  22.7809620   5.6422620   8.8963930
  26.0364890   3.2366760  10.5094990  26.1561100   2.6407900  11.2489830
  26.8958890   3.2736450  10.0896290  28.3752790   3.7903950   9.0857500
  27.8488010   4.3146570   8.4822640  28.7184130   4.4231340   9.7167230
  21.5508410  11.8103590  10.2414880  21.0129500  12.5349650   9.9223580
  21.8042370  11.3333930   9.4512220  24.4070620  13.0454800  10.5001530
  24.3329320  13.9489940  10.8073900  23.5049460  12.7266700  10.4723600
  15.8097910  10.3729390   3.8035150  16.1400920   9.5050450   3.5713790
  16.2388910  10.5787910   4.6340110  16.2988120  11.2399980   6.5416780
  15.8619110  11.4200780   7.3740930  16.8665800  11.9974600   6.3998500
  31.9350300  10.7416980  10.8294090  31.3352290  10.8009540  10.0858010
  32.0644200   9.8021960  10.9590940  16.1312550   3.7520210   2.9005660
  15.4761390   3.4831850   2.2565360  16.9690500   3.6424690   2.4507640
  33.6368180   6.0832380   3.5139930  34.0077010   5.2999700   3.1075900
  34.2770110   6.7721480   3.3357230  30.6201940   7.4668960   8.9270250
  29.8061780   7.8966120   9.1896040  31.0276140   8.0787370   8.3139300
  17.1688480   4.1372780   7.4409000  17.5361520   4.0500180   8.3205020
  16.5999300   3.3739330   7.3415860  31.9692340   2.6057160  10.4539470
  31.7378430   2.3769910   9.5537420  32.2296890   3.5256710  10.4084360
  32.0333400   1.7683000   7.6426740  31.0836110   1.7346540   7.7571730
  32.2146410   2.6783110   7.4076510  30.6777990  12.2187560   2.4538520
  31.2737060  11.8972130   1.7772940  30.9356140  11.7459380   3.2451790
  18.5840560   8.6505470  12.6029150  18.5410190   8.2798380  13.4843610
  18.7151570   9.5883040  12.7430970  22.2846590  10.2065060   8.2038870
  22.0437950  10.4739620   7.3169390  23.2249230  10.3770790   8.2589730
  33.5450750  12.2259440   9.0049510  33.0509030  12.6228310   8.2876640
  32.9364040  11.6008650   9.3986790  18.4228590  11.5967720   9.7226930
  17.8288910  11.4652420  10.4616970  18.4152430  10.7605860   9.2569030
  31.2290200  12.8682860   6.2836250  30.7693170  13.6198670   5.9094270
  30.6002660  12.1489330   6.2251050  18.0540820   8.9626100   8.6734970
  17.3274880   8.3431390   8.6060920  18.1149970   9.3566710   7.8033050
  21.6585920  11.1771100   5.4584380  22.1750940  10.5658460   4.9332640
  22.3083300  11.6799880   5.9495390  24.3981420  12.0679590   6.2853360
  24.6859230  11.8133890   5.4086370  24.9104640  11.5156950   6.8758930
  16.3370820  12.2800490   1.8831730  16.1692860  11.6471170   2.5813620
  15.4705330  12.4859890   1.5325920  24.4653780  12.9895690  13.6521560
  25.3921090  12.7539960  13.6957520  24.4504210  13.8167690  13.1707590
  31.0331340  12.2165550  13.4762600  31.8256660  11.7214780  13.2688560
  31.3264490  12.8955690  14.0838210   8.3847510  78.1860450  78.2296100
   8.3041560  77.2715060  77.9587810   7.9711930  78.6827520  77.5235810
   6.5165550  79.9639470  80.1105370   5.7407650  79.4839910  80.4003940
   7.1678480  79.2845120  79.9361530   6.9879710  75.4467040  80.3444460
   7.3644530  74.5738920  80.2318130   6.8899220  75.7825740  79.4534900
  10.7703830  72.9417480  77.2772800  11.5913450  72.4514050  77.3198280
  10.8037910  73.5315140  78.0304640   2.9592450  76.7879040  80.1387080
   3.4670670  77.2860010  80.7792100   3.4905690  76.0114240  79.9626440
  11.0065310  74.8817860  80.0500340  10.3020880  75.1702750  80.6303450
  11.3677470  75.6917970  79.6899900  14.0752230  74.3272650  80.4409550
  13.1277140  74.3611630  80.5724980  14.4002220  75.1411600  80.8258910
   4.6071770  70.6269830  78.7365540   4.9146750  70.0716720  78.0201040
   3.6772470  70.7614290  78.5538530   6.9952530  78.6918660  75.4725660
   6.0681810  78.6256040  75.7014130   7.1477350  79.6298790  75.3580900
   6.9821610  74.9635660  72.4692820   6.0425280  75.1249620  72.5545280
   7.3004870  75.6821340  71.9228810  13.5034370  79.6454180  82.4471850
  12.6753000  79.7147270  81.9721980  14.0984850  80.2308490  81.9787680
  11.0249820  80.2538960  75.9760910  10.4062240  79.9158510  75.3287210
  11.0074270  79.6098720  76.6840100   2.6009170  79.2183400  78.2545390
   2.1966170  78.5060650  77.7591290   2.6872290  78.8736640  79.1433430
   9.2014520  79.4925770  72.9833660   9.6407800  78.6548200  72.8371480
   9.9142940  80.1255170  73.0697800  12.7831660  70.7468580  71.2974700
  12.4704320  70.8395410  72.1973770  13.5444130  71.3249610  71.2472130
   4.8836280  71.0774150  74.0181540   4.2590460  71.0734020  74.7434850
   4.7966400  70.2105110  73.6217510   3.8053360  72.0010780  80.9965310
   4.1025690  72.9073610  80.9157330   4.3538920  71.5129560  80.3824880
   8.7889440  76.5860390  75.4647610   8.1898330  77.3096190  75.2811230
   9.3369050  76.5237170  74.6824060   7.3954310  75.2223930  77.4950890
   7.7883880  75.5396130  76.6819580   7.7571160  74.3435810  77.6095410
   7.9809450  77.8129680  81.5901670   7.2490570  78.3216490  81.9391770
   7.5833790  76.9959660  81.2890450   4.4186840  74.4883880  79.9954160
   4.4222900  74.0473830  79.1458700   5.3137960  74.8101210  80.1025980
   4.4806990  75.4895960  72.9860920   4.6019810  75.4482440  73.9346740
   4.0955500  76.3520110  72.8307650   8.4435360  73.2663360  81.0024610
   8.4608100  73.7172010  81.8466460   8.1950940  72.3669000  81.2158050
   3.4928490  77.7997100  72.3844220   2.9245390  77.3515350  71.7580130
   4.2017490  78.1589880  71.8509370   4.7194810  78.5485660  81.7419570
   5.0864940  78.0744230  82.4880910   4.5299870  79.4227230  82.0827910
  11.7963950  80.7920650  80.4497020  12.5163070  81.2875940  80.0593130
  11.5945770  80.1138540  79.8050890   7.2573890  72.1858610  74.5926410
   6.4438500  71.6871780  74.5171720   7.0635840  73.0256860  74.1762760
   9.9722280  76.5578260  72.8888570  10.8601900  76.8695490  72.7139910
   9.9427370  75.6850510  72.4969150  12.2436550  77.8690100  72.3568430
  12.1600270  78.3004320  71.5064870  12.9630740  78.3288450  72.7895250
   4.2400770  79.8161510  75.9518020   4.6963550  80.6266760  76.1778210
   3.8888980  79.4984650  76.7836510  12.0007290  73.3669530  74.4436250
  11.3720450  73.4715200  73.7294480  11.5059210  73.5866310  75.2330130
   3.9691320  75.6455480  75.8594130   3.2607470  76.1141820  76.3007740
   4.2535800  74.9877490  76.4939320   8.0006750  72.3706140  77.2989920
   7.8774530  72.3892270  76.3499430   8.9491310  72.4185080  77.4188320
   2.1726340  73.9540560  73.2344840   3.0216870  74.3910710  73.1685030
   1.8057610  74.2660820  74.0616900  11.0936120  78.5253320  78.1476410
  10.1526260  78.5403550  78.3224100  11.4080190  77.7389280  78.5936710
   3.1036790  80.2038050  73.6823010   3.5253210  80.0377920  74.5254400
   3.2287630  79.3938280  73.1878150   5.6164430  79.2275660  70.9300110
   6.1370090  78.5124680  70.5641260   6.2632830  79.8661530  71.2300620
   1.9995690  76.2771280  70.6281170   1.7984750  75.4138640  70.9894510
   1.8287740  76.1904640  69.6902770   9.4784000  71.0879510  73.1568050
   9.7586290  70.2447410  73.5127470   8.7049730  71.3202620  73.6706800
   4.0163420  72.3206520  71.6015250   3.6685420  71.6430510  71.0217700
   4.2176190  71.8596030  72.4158640  13.8564720  80.3256240  73.7671960
  14.6183630  80.8952890  73.8731650  13.8719090  79.7583440  74.5380270
  10.3059500  73.6435460  72.2198110  10.7244380  73.4566440  71.3794770
   9.9995560  72.7914510  72.5301040  13.8049230  78.5559600  75.9173910
  13.4292830  77.7887530  75.4855200  13.0752350  78.9382300  76.4048840
  13.0800190  76.7817090  79.2181150  13.6037670  76.2879740  78.5871320
  13.6659610  76.9167450  79.9628720  13.2589910  76.8656960  82.7400700
  12.3092620  76.8320500  82.8545690  13.4402920  77.7757070  82.5050470
  12.5700160  76.0390440  75.1573560  13.0659280  75.8061310  75.9422440
  12.3716230  75.2002280  74.7411200  13.9987320  74.6751390  77.6911240
  13.8886600  74.5207430  78.6293510  14.7594910  74.1472330  77.4486650
  14.8877590  72.5059310  70.9317380  15.8126900  72.3740490  70.7235670
  14.8653380  72.5852130  71.8853830  14.9616080  73.2769970  73.5574090
  14.1667580  73.2115090  74.0867000  15.1659360  74.2120610  73.5459440
   6.8414940  70.9043750  81.9623830   6.0586730  71.3789250  82.2420590
   6.5477870  69.9998580  81.8537010  11.3936010  71.6066850  80.0072920
  11.8344100  71.5511950  79.1594520  11.1243600  72.5224860  80.0783100
  13.2574580  71.2382090  78.0181740  13.1962980  70.2943310  77.8712760
  14.0366610  71.3462180  78.5635200   4.7269160  73.3230500  77.4739860
   3.9143670  72.9487390  77.1335740   5.2310800  72.5675580  77.7761050
   9.2294140  69.9872950  78.7122930   9.8323510  70.5593160  79.1871450
   8.4887130  70.5512390  78.4896830  12.3728740  70.3894510  73.9863210
  12.5679370  71.2877960  74.2530640  11.5858610  70.1581590  74.4796160
   2.7518340  71.4730420  76.0784910   2.1221080  70.7717730  76.2455040
   2.2123480  72.2334550  75.8618070   8.3847510  78.1860450  59.4552610
   8.3041560  77.2715060  59.1844320   7.9711930  78.6827520  58.7492320
   6.5165550  79.9639470  61.3361880   5.7407650  79.4839910  61.6260450
   7.1678480  79.2845120  61.1618040   6.9879710  75.4467040  61.5700970
   7.3644530  74.5738920  61.4574640   6.8899220  75.7825740  60.6791410
  10.7703830  72.9417480  58.5029310  11.5913450  72.4514050  58.5454790
  10.8037910  73.5315140  59.2561150   2.9592450  76.7879040  61.3643590
   3.4670670  77.2860010  62.0048610   3.4905690  76.0114240  61.1882950
  15.0603380  74.9584230  65.0672940  14.3555550  75.3465940  64.5488050
  15.3261300  75.6534520  65.6693870  11.0065310  74.8817860  61.2756850
  10.3020880  75.1702750  61.8559960  11.3677470  75.6917970  60.9156410
  14.0752230  74.3272650  61.6666060  13.1277140  74.3611630  61.7981490
  14.4002220  75.1411600  62.0515420   4.6071770  70.6269830  59.9622050
   4.9146750  70.0716720  59.2457550   3.6772470  70.7614290  59.7795040
   6.9952530  78.6918660  56.6982170   6.0681810  78.6256040  56.9270640
   7.1477350  79.6298790  56.5837410   6.9821610  74.9635660  53.6949330
   6.0425280  75.1249620  53.7801790   7.3004870  75.6821340  53.1485320
  13.5034370  79.6454180  63.6728360  12.6753000  79.7147270  63.1978490
  14.0984850  80.2308490  63.2044190  11.0249820  80.2538960  57.2017420
  10.4062240  79.9158510  56.5543720  11.0074270  79.6098720  57.9096610
  10.4676380  76.4323500  64.6183230  10.0547560  77.2577210  64.8723220
   9.7352330  75.8468540  64.4259590   2.6009170  79.2183400  59.4801900
   2.1966170  78.5060650  58.9847800   2.6872290  78.8736640  60.3689940
   9.2014520  79.4925770  54.2090170   9.6407800  78.6548200  54.0627990
   9.9142940  80.1255170  54.2954310  12.7831660  70.7468580  52.5231210
  12.4704320  70.8395410  53.4230280  13.5444130  71.3249610  52.4728640
  13.9932950  75.4840080  68.5005350  13.3777220  75.9919750  67.9720810
  13.6729370  74.5838410  68.4431290   6.0547270  74.3231970  65.9667540
   5.5926640  74.5314990  66.7787480   5.6525380  73.5091320  65.6638210
  11.0551780  75.5440920  67.0964200  10.2045370  75.2446670  67.4173270
  10.8953570  75.7882930  66.1848020   8.1501490  77.0442670  69.1962990
   8.4754900  76.2106420  68.8565220   8.9381820  77.5671190  69.3441320
   4.8836280  71.0774150  55.2438050   4.2590460  71.0734020  55.9691360
   4.7966400  70.2105110  54.8474020   3.8053360  72.0010780  62.2221820
   4.1025690  72.9073610  62.1413840   4.3538920  71.5129560  61.6081390
   8.7889440  76.5860390  56.6904120   8.1898330  77.3096190  56.5067740
   9.3369050  76.5237170  55.9080570   3.9990890  77.4782600  68.7573740
   3.9034490  76.5377330  68.6074140   4.8422870  77.6997670  68.3621810
   7.3954310  75.2223930  58.7207400   7.7883880  75.5396130  57.9076090
   7.7571160  74.3435810  58.8351920   5.7046480  73.9731240  69.9804260
   5.0144800  73.7803440  70.6150350   6.4478780  74.2565880  70.5128560
   7.9809450  77.8129680  62.8158180   7.2490570  78.3216490  63.1648280
   7.5833790  76.9959660  62.5146960   4.4186840  74.4883880  61.2210670
   4.4222900  74.0473830  60.3715210   5.3137960  74.8101210  61.3282490
   4.4806990  75.4895960  54.2117430   4.6019810  75.4482440  55.1603250
   4.0955500  76.3520110  54.0564160   8.4435360  73.2663360  62.2281120
   8.4608100  73.7172010  63.0722970   8.1950940  72.3669000  62.4414560
   3.4928490  77.7997100  53.6100730   2.9245390  77.3515350  52.9836640
   4.2017490  78.1589880  53.0765880  11.8706110  70.6795540  68.0667500
  12.1951880  69.9485200  68.5925480  11.9062620  70.3609180  67.1648490
   4.7194810  78.5485660  62.9676080   5.0864940  78.0744230  63.7137420
   4.5299870  79.4227230  63.3084420   2.5094180  77.5894300  65.2860290
   2.2051250  78.4686280  65.5110650   3.4640640  77.6494090  65.3217730
  11.7963950  80.7920650  61.6753530  12.5163070  81.2875940  61.2849640
  11.5945770  80.1138540  61.0307400   7.2573890  72.1858610  55.8182920
   6.4438500  71.6871780  55.7428230   7.0635840  73.0256860  55.4019270
   7.1782750  80.8629710  67.5622530   7.1120060  79.9425380  67.3080120
   6.5487890  80.9605150  68.2767170   9.9722280  76.5578260  54.1145080
  10.8601900  76.8695490  53.9396420   9.9427370  75.6850510  53.7225660
  12.2436550  77.8690100  53.5824940  12.1600270  78.3004320  52.7321380
  12.9630740  78.3288450  54.0151760  13.3210690  80.3257620  66.6594910
  12.5958880  80.9186400  66.4624300  13.8486150  80.3181160  65.8608280
   4.2400770  79.8161510  57.1774530   4.6963550  80.6266760  57.4034720
   3.8888980  79.4984650  58.0093020   8.6345260  74.4112590  64.8605200
   9.0026080  73.5907800  65.1884770   7.7743460  74.4714480  65.2760850
  12.0007290  73.3669530  55.6692760  11.3720450  73.4715200  54.9550990
  11.5059210  73.5866310  56.4586640   3.9691320  75.6455480  57.0850640
   3.2607470  76.1141820  57.5264250   4.2535800  74.9877490  57.7195830
   5.5947250  77.0652180  65.0843170   6.0932500  77.5398000  65.7495020
   5.7370200  76.1415700  65.2913200   8.0006750  72.3706140  58.5246430
   7.8774530  72.3892270  57.5755940   8.9491310  72.4185080  58.6444830
   2.1726340  73.9540560  54.4601350   3.0216870  74.3910710  54.3941540
   1.8057610  74.2660820  55.2873410  12.8014110  73.2820140  65.9271560
  12.2987710  74.0225540  66.2665370  13.6170770  73.6704140  65.6108350
  11.0936120  78.5253320  59.3732920  10.1526260  78.5403550  59.5480610
  11.4080190  77.7389280  59.8193220   3.1036790  80.2038050  54.9079520
   3.5253210  80.0377920  55.7510910   3.2287630  79.3938280  54.4134660
   5.6164430  79.2275660  52.1556620   6.1370090  78.5124680  51.7897770
   6.2632830  79.8661530  52.4557130  10.1642270  80.6504060  67.4791690
  10.5783290  80.8049140  68.3282110   9.2293270  80.7759280  67.6417470
  10.6364440  77.9900220  69.4830840  11.2185210  77.2352540  69.3951320
  10.8126210  78.5207660  68.7062320   4.5197950  71.7070210  64.8275180
   4.0715250  71.7294470  63.9820730   3.8863150  71.3089230  65.4245480
   7.2621400  78.3340720  66.8325460   7.3817610  77.7381860  67.5720300
   8.1215400  78.3710410  66.4126760   9.6009300  78.8877910  65.4087970
   9.0744520  79.4120530  64.8053110   9.9440640  79.5205300  66.0397700
   1.9995690  76.2771280  51.8537680   1.7984750  75.4138640  52.2151020
   1.8287740  76.1904640  50.9159280   4.0290170  74.8762070  68.0901280
   4.6189860  74.5677920  68.7779100   3.2110410  74.4041820  68.2461180
   8.8483600  74.4927880  68.3234300   8.1599120  73.8309420  68.2584290
   9.5689620  74.0466150  68.7682760   9.4784000  71.0879510  54.3824560
   9.7586290  70.2447410  54.7383980   8.7049730  71.3202620  54.8963310
   4.0163420  72.3206520  52.8271760   3.6685420  71.6430510  52.2474210
   4.2176190  71.8596030  53.6415150  13.8564720  80.3256240  54.9928470
  14.6183630  80.8952890  55.0988160  13.8719090  79.7583440  55.7636780
  10.3059500  73.6435460  53.4454620  10.7244380  73.4566440  52.6051280
   9.9995560  72.7914510  53.7557550  13.8049230  78.5559600  57.1430420
  13.4292830  77.7887530  56.7111710  13.0752350  78.9382300  57.6305350
  13.1948850  77.7031120  66.7769940  12.9634940  77.4743870  65.8767890
  13.4553400  78.6230670  66.7314830  11.6336920  72.9287550  69.5549640
  12.5107100  72.9370950  69.9383640  11.6457760  72.1918390  68.9441990
  13.0800190  76.7817090  60.4437660  13.6037670  76.2879740  59.8127830
  13.6659610  76.9167450  61.1885230  13.2589910  76.8656960  63.9657210
  12.3092620  76.8320500  64.0802200  13.4402920  77.7757070  63.7306980
  12.5700160  76.0390440  56.3830070  13.0659280  75.8061310  57.1678950
  12.3716230  75.2002280  55.9667710  13.9987320  74.6751390  58.9167750
  13.8886600  74.5207430  59.8550020  14.7594910  74.1472330  58.6743160
  12.3453040  70.6145520  65.3750750  12.9825260  71.2279660  65.7409940
  12.4927930  70.6506180  64.4299980  14.8877590  72.5059310  52.1573890
  15.8126900  72.3740490  51.9492180  14.8653380  72.5852130  53.1110340
  14.9616080  73.2769970  54.7830600  14.1667580  73.2115090  55.3123510
  15.1659360  74.2120610  54.7715950   5.7157520  71.7671710  68.2825850
   5.6546410  72.3593540  69.0321260   6.6557900  71.6597670  68.1376110
   8.3532080  71.4241770  67.9218140   8.9672490  71.7421060  67.2599220
   8.8981640  70.9390360  68.5414000   9.0940120  69.9873910  64.2487430
   8.2199960  70.3209020  64.0460360   8.9850870  69.5147090  65.0739300
  10.0012100  72.1944780  65.6329150   9.6725460  71.3796540  65.2530880
  10.9494400  72.1514590  65.5094840   6.8414940  70.9043750  63.1880340
   6.0586730  71.3789250  63.4677100   6.5477870  69.9998580  63.0793520
  11.3936010  71.6066850  61.2329430  11.8344100  71.5511950  60.3851030
  11.1243600  72.5224860  61.3039610  13.2574580  71.2382090  59.2438250
  13.1962980  70.2943310  59.0969270  14.0366610  71.3462180  59.7891710
   4.7269160  73.3230500  58.6996370   3.9143670  72.9487390  58.3592250
   5.2310800  72.5675580  59.0017560   9.2294140  69.9872950  59.9379440
   9.8323510  70.5593160  60.4127960   8.4887130  70.5512390  59.7153340
  12.3728740  70.3894510  55.2119720  12.5679370  71.2877960  55.4787150
  11.5858610  70.1581590  55.7052670   2.7518340  71.4730420  57.3041420
   2.1221080  70.7717730  57.4711550   2.2123480  72.2334550  57.0874580
   2.8773900  70.7514400  69.7393910   2.5958170  71.2548000  68.9754730
   3.2593600  69.9536150  69.3736040   9.4789360  70.1667980  70.3174380
   9.3654810  70.4862590  71.2125900  10.2959100  70.5680490  70.0211660
   8.3847510  78.1860450  40.6809120   8.3041560  77.2715060  40.4100830
   7.9711930  78.6827520  39.9748830   6.5165550  79.9639470  42.5618390
   5.7407650  79.4839910  42.8516960   7.1678480  79.2845120  42.3874550
   6.9879710  75.4467040  42.7957480   7.3644530  74.5738920  42.6831150
   6.8899220  75.7825740  41.9047920  10.7703830  72.9417480  39.7285820
  11.5913450  72.4514050  39.7711300  10.8037910  73.5315140  40.4817660
   2.9592450  76.7879040  42.5900100   3.4670670  77.2860010  43.2305120
   3.4905690  76.0114240  42.4139460  15.0603380  74.9584230  46.2929450
  14.3555550  75.3465940  45.7744560  15.3261300  75.6534520  46.8950380
  11.0065310  74.8817860  42.5013360  10.3020880  75.1702750  43.0816470
  11.3677470  75.6917970  42.1412920  14.0752230  74.3272650  42.8922570
  13.1277140  74.3611630  43.0238000  14.4002220  75.1411600  43.2771930
   4.6071770  70.6269830  41.1878560   4.9146750  70.0716720  40.4714060
   3.6772470  70.7614290  41.0051550   6.9952530  78.6918660  37.9238680
   6.0681810  78.6256040  38.1527150   7.1477350  79.6298790  37.8093920
   6.9821610  74.9635660  34.9205840   6.0425280  75.1249620  35.0058300
   7.3004870  75.6821340  34.3741830  13.5034370  79.6454180  44.8984870
  12.6753000  79.7147270  44.4235000  14.0984850  80.2308490  44.4300700
  11.0249820  80.2538960  38.4273930  10.4062240  79.9158510  37.7800230
  11.0074270  79.6098720  39.1353120  10.4676380  76.4323500  45.8439740
  10.0547560  77.2577210  46.0979730   9.7352330  75.8468540  45.6516100
   2.6009170  79.2183400  40.7058410   2.1966170  78.5060650  40.2104310
   2.6872290  78.8736640  41.5946450   9.2014520  79.4925770  35.4346680
   9.6407800  78.6548200  35.2884500   9.9142940  80.1255170  35.5210820
  12.7831660  70.7468580  33.7487720  12.4704320  70.8395410  34.6486790
  13.5444130  71.3249610  33.6985150  13.9932950  75.4840080  49.7261860
  13.3777220  75.9919750  49.1977320  13.6729370  74.5838410  49.6687800
   6.0547270  74.3231970  47.1924050   5.5926640  74.5314990  48.0043990
   5.6525380  73.5091320  46.8894720  11.0551780  75.5440920  48.3220710
  10.2045370  75.2446670  48.6429780  10.8953570  75.7882930  47.4104530
   8.1501490  77.0442670  50.4219500   8.4754900  76.2106420  50.0821730
   8.9381820  77.5671190  50.5697830   4.8836280  71.0774150  36.4694560
   4.2590460  71.0734020  37.1947870   4.7966400  70.2105110  36.0730530
   3.8053360  72.0010780  43.4478330   4.1025690  72.9073610  43.3670350
   4.3538920  71.5129560  42.8337900   8.7889440  76.5860390  37.9160630
   8.1898330  77.3096190  37.7324250   9.3369050  76.5237170  37.1337080
   3.9990890  77.4782600  49.9830250   3.9034490  76.5377330  49.8330650
   4.8422870  77.6997670  49.5878320   7.3954310  75.2223930  39.9463910
   7.7883880  75.5396130  39.1332600   7.7571160  74.3435810  40.0608430
   5.7046480  73.9731240  51.2060770   5.0144800  73.7803440  51.8406860
   6.4478780  74.2565880  51.7385070   7.9809450  77.8129680  44.0414690
   7.2490570  78.3216490  44.3904790   7.5833790  76.9959660  43.7403470
   4.4186840  74.4883880  42.4467180   4.4222900  74.0473830  41.5971720
   5.3137960  74.8101210  42.5539000   4.4806990  75.4895960  35.4373940
   4.6019810  75.4482440  36.3859760   4.0955500  76.3520110  35.2820670
   8.4435360  73.2663360  43.4537630   8.4608100  73.7172010  44.2979480
   8.1950940  72.3669000  43.6671070   3.4928490  77.7997100  34.8357240
   2.9245390  77.3515350  34.2093150   4.2017490  78.1589880  34.3022390
  11.8706110  70.6795540  49.2924010  12.1951880  69.9485200  49.8181990
  11.9062620  70.3609180  48.3905000   4.7194810  78.5485660  44.1932590
   5.0864940  78.0744230  44.9393930   4.5299870  79.4227230  44.5340930
   2.5094180  77.5894300  46.5116800   2.2051250  78.4686280  46.7367160
   3.4640640  77.6494090  46.5474240  11.7963950  80.7920650  42.9010040
  12.5163070  81.2875940  42.5106150  11.5945770  80.1138540  42.2563910
   7.2573890  72.1858610  37.0439430   6.4438500  71.6871780  36.9684740
   7.0635840  73.0256860  36.6275780   7.1782750  80.8629710  48.7879040
   7.1120060  79.9425380  48.5336630   6.5487890  80.9605150  49.5023680
   9.9722280  76.5578260  35.3401590  10.8601900  76.8695490  35.1652930
   9.9427370  75.6850510  34.9482170  12.2436550  77.8690100  34.8081450
  12.1600270  78.3004320  33.9577890  12.9630740  78.3288450  35.2408270
  13.3210690  80.3257620  47.8851420  12.5958880  80.9186400  47.6880810
  13.8486150  80.3181160  47.0864790   4.2400770  79.8161510  38.4031040
   4.6963550  80.6266760  38.6291230   3.8888980  79.4984650  39.2349530
   8.6345260  74.4112590  46.0861710   9.0026080  73.5907800  46.4141280
   7.7743460  74.4714480  46.5017360  12.0007290  73.3669530  36.8949270
  11.3720450  73.4715200  36.1807500  11.5059210  73.5866310  37.6843150
   3.9691320  75.6455480  38.3107150   3.2607470  76.1141820  38.7520760
   4.2535800  74.9877490  38.9452340   5.5947250  77.0652180  46.3099680
   6.0932500  77.5398000  46.9751530   5.7370200  76.1415700  46.5169710
   8.0006750  72.3706140  39.7502940   7.8774530  72.3892270  38.8012450
   8.9491310  72.4185080  39.8701340   2.1726340  73.9540560  35.6857860
   3.0216870  74.3910710  35.6198050   1.8057610  74.2660820  36.5129920
  12.8014110  73.2820140  47.1528070  12.2987710  74.0225540  47.4921880
  13.6170770  73.6704140  46.8364860  11.0936120  78.5253320  40.5989430
  10.1526260  78.5403550  40.7737120  11.4080190  77.7389280  41.0449730
   3.1036790  80.2038050  36.1336030   3.5253210  80.0377920  36.9767420
   3.2287630  79.3938280  35.6391170   5.6164430  79.2275660  33.3813130
   6.1370090  78.5124680  33.0154280   6.2632830  79.8661530  33.6813640
  10.1642270  80.6504060  48.7048200  10.5783290  80.8049140  49.5538620
   9.2293270  80.7759280  48.8673980  10.6364440  77.9900220  50.7087350
  11.2185210  77.2352540  50.6207830  10.8126210  78.5207660  49.9318830
   4.5197950  71.7070210  46.0531690   4.0715250  71.7294470  45.2077240
   3.8863150  71.3089230  46.6501990   7.2621400  78.3340720  48.0581970
   7.3817610  77.7381860  48.7976810   8.1215400  78.3710410  47.6383270
   9.6009300  78.8877910  46.6344480   9.0744520  79.4120530  46.0309620
   9.9440640  79.5205300  47.2654210   1.9995690  76.2771280  33.0794190
   1.7984750  75.4138640  33.4407530   1.8287740  76.1904640  32.1415790
   4.0290170  74.8762070  49.3157790   4.6189860  74.5677920  50.0035610
   3.2110410  74.4041820  49.4717690   8.8483600  74.4927880  49.5490810
   8.1599120  73.8309420  49.4840800   9.5689620  74.0466150  49.9939270
   9.4784000  71.0879510  35.6081070   9.7586290  70.2447410  35.9640490
   8.7049730  71.3202620  36.1219820   4.0163420  72.3206520  34.0528270
   3.6685420  71.6430510  33.4730720   4.2176190  71.8596030  34.8671660
  13.8564720  80.3256240  36.2184980  14.6183630  80.8952890  36.3244670
  13.8719090  79.7583440  36.9893290  10.3059500  73.6435460  34.6711130
  10.7244380  73.4566440  33.8307790   9.9995560  72.7914510  34.9814060
  13.8049230  78.5559600  38.3686930  13.4292830  77.7887530  37.9368220
  13.0752350  78.9382300  38.8561860  13.1948850  77.7031120  48.0026450
  12.9634940  77.4743870  47.1024400  13.4553400  78.6230670  47.9571340
  11.6336920  72.9287550  50.7806150  12.5107100  72.9370950  51.1640150
  11.6457760  72.1918390  50.1698500  13.0800190  76.7817090  41.6694170
  13.6037670  76.2879740  41.0384340  13.6659610  76.9167450  42.4141740
  13.2589910  76.8656960  45.1913720  12.3092620  76.8320500  45.3058710
  13.4402920  77.7757070  44.9563490  12.5700160  76.0390440  37.6086580
  13.0659280  75.8061310  38.3935460  12.3716230  75.2002280  37.1924220
  13.9987320  74.6751390  40.1424260  13.8886600  74.5207430  41.0806530
  14.7594910  74.1472330  39.8999670  12.3453040  70.6145520  46.6007260
  12.9825260  71.2279660  46.9666450  12.4927930  70.6506180  45.6556490
  14.8877590  72.5059310  33.3830400  15.8126900  72.3740490  33.1748690
  14.8653380  72.5852130  34.3366850  14.9616080  73.2769970  36.0087110
  14.1667580  73.2115090  36.5380020  15.1659360  74.2120610  35.9972460
   5.7157520  71.7671710  49.5082360   5.6546410  72.3593540  50.2577770
   6.6557900  71.6597670  49.3632620   8.3532080  71.4241770  49.1474650
   8.9672490  71.7421060  48.4855730   8.8981640  70.9390360  49.7670510
   9.0940120  69.9873910  45.4743940   8.2199960  70.3209020  45.2716870
   8.9850870  69.5147090  46.2995810  10.0012100  72.1944780  46.8585660
   9.6725460  71.3796540  46.4787390  10.9494400  72.1514590  46.7351350
   6.8414940  70.9043750  44.4136850   6.0586730  71.3789250  44.6933610
   6.5477870  69.9998580  44.3050030  11.3936010  71.6066850  42.4585940
  11.8344100  71.5511950  41.6107540  11.1243600  72.5224860  42.5296120
  13.2574580  71.2382090  40.4694760  13.1962980  70.2943310  40.3225780
  14.0366610  71.3462180  41.0148220   4.7269160  73.3230500  39.9252880
   3.9143670  72.9487390  39.5848760   5.2310800  72.5675580  40.2274070
   9.2294140  69.9872950  41.1635950   9.8323510  70.5593160  41.6384470
   8.4887130  70.5512390  40.9409850  12.3728740  70.3894510  36.4376230
  12.5679370  71.2877960  36.7043660  11.5858610  70.1581590  36.9309180
   2.7518340  71.4730420  38.5297930   2.1221080  70.7717730  38.6968060
   2.2123480  72.2334550  38.3131090   2.8773900  70.7514400  50.9650420
   2.5958170  71.2548000  50.2011240   3.2593600  69.9536150  50.5992550
   9.4789360  70.1667980  51.5430890   9.3654810  70.4862590  52.4382410
  10.2959100  70.5680490  51.2468170   8.3847510  78.1860450  21.9065630
   8.3041560  77.2715060  21.6357340   7.9711930  78.6827520  21.2005340
   6.5165550  79.9639470  23.7874900   5.7407650  79.4839910  24.0773470
   7.1678480  79.2845120  23.6131060   6.9879710  75.4467040  24.0213990
   7.3644530  74.5738920  23.9087660   6.8899220  75.7825740  23.1304430
  10.7703830  72.9417480  20.9542330  11.5913450  72.4514050  20.9967810
  10.8037910  73.5315140  21.7074170   2.9592450  76.7879040  23.8156610
   3.4670670  77.2860010  24.4561630   3.4905690  76.0114240  23.6395970
  15.0603380  74.9584230  27.5185960  14.3555550  75.3465940  27.0001070
  15.3261300  75.6534520  28.1206890  11.0065310  74.8817860  23.7269870
  10.3020880  75.1702750  24.3072980  11.3677470  75.6917970  23.3669430
  14.0752230  74.3272650  24.1179080  13.1277140  74.3611630  24.2494510
  14.4002220  75.1411600  24.5028440   4.6071770  70.6269830  22.4135070
   4.9146750  70.0716720  21.6970570   3.6772470  70.7614290  22.2308060
   6.9952530  78.6918660  19.1495190   6.0681810  78.6256040  19.3783660
   7.1477350  79.6298790  19.0350430   6.9821610  74.9635660  16.1462350
   6.0425280  75.1249620  16.2314810   7.3004870  75.6821340  15.5998340
  13.5034370  79.6454180  26.1241380  12.6753000  79.7147270  25.6491510
  14.0984850  80.2308490  25.6557210  11.0249820  80.2538960  19.6530440
  10.4062240  79.9158510  19.0056740  11.0074270  79.6098720  20.3609630
  10.4676380  76.4323500  27.0696250  10.0547560  77.2577210  27.3236240
   9.7352330  75.8468540  26.8772610   2.6009170  79.2183400  21.9314920
   2.1966170  78.5060650  21.4360820   2.6872290  78.8736640  22.8202960
   9.2014520  79.4925770  16.6603190   9.6407800  78.6548200  16.5141010
   9.9142940  80.1255170  16.7467330  12.7831660  70.7468580  14.9744230
  12.4704320  70.8395410  15.8743300  13.5444130  71.3249610  14.9241660
  13.9932950  75.4840080  30.9518370  13.3777220  75.9919750  30.4233830
  13.6729370  74.5838410  30.8944310   6.0547270  74.3231970  28.4180560
   5.5926640  74.5314990  29.2300500   5.6525380  73.5091320  28.1151230
  11.0551780  75.5440920  29.5477220  10.2045370  75.2446670  29.8686290
  10.8953570  75.7882930  28.6361040   8.1501490  77.0442670  31.6476010
   8.4754900  76.2106420  31.3078240   8.9381820  77.5671190  31.7954340
   4.8836280  71.0774150  17.6951070   4.2590460  71.0734020  18.4204380
   4.7966400  70.2105110  17.2987040   3.8053360  72.0010780  24.6734840
   4.1025690  72.9073610  24.5926860   4.3538920  71.5129560  24.0594410
   8.7889440  76.5860390  19.1417140   8.1898330  77.3096190  18.9580760
   9.3369050  76.5237170  18.3593590   3.9990890  77.4782600  31.2086760
   3.9034490  76.5377330  31.0587160   4.8422870  77.6997670  30.8134830
   7.3954310  75.2223930  21.1720420   7.7883880  75.5396130  20.3589110
   7.7571160  74.3435810  21.2864940   5.7046480  73.9731240  32.4317280
   5.0144800  73.7803440  33.0663370   6.4478780  74.2565880  32.9641580
   7.9809450  77.8129680  25.2671200   7.2490570  78.3216490  25.6161300
   7.5833790  76.9959660  24.9659980   4.4186840  74.4883880  23.6723690
   4.4222900  74.0473830  22.8228230   5.3137960  74.8101210  23.7795510
   4.4806990  75.4895960  16.6630450   4.6019810  75.4482440  17.6116270
   4.0955500  76.3520110  16.5077180   8.4435360  73.2663360  24.6794140
   8.4608100  73.7172010  25.5235990   8.1950940  72.3669000  24.8927580
   3.4928490  77.7997100  16.0613750   2.9245390  77.3515350  15.4349660
   4.2017490  78.1589880  15.5278900  11.8706110  70.6795540  30.5180520
  12.1951880  69.9485200  31.0438500  11.9062620  70.3609180  29.6161510
   4.7194810  78.5485660  25.4189100   5.0864940  78.0744230  26.1650440
   4.5299870  79.4227230  25.7597440   2.5094180  77.5894300  27.7373310
   2.2051250  78.4686280  27.9623670   3.4640640  77.6494090  27.7730750
  11.7963950  80.7920650  24.1266550  12.5163070  81.2875940  23.7362660
  11.5945770  80.1138540  23.4820420   7.2573890  72.1858610  18.2695940
   6.4438500  71.6871780  18.1941250   7.0635840  73.0256860  17.8532290
   7.1782750  80.8629710  30.0135550   7.1120060  79.9425380  29.7593140
   6.5487890  80.9605150  30.7280190   9.9722280  76.5578260  16.5658100
  10.8601900  76.8695490  16.3909440   9.9427370  75.6850510  16.1738680
  12.2436550  77.8690100  16.0337960  12.1600270  78.3004320  15.1834400
  12.9630740  78.3288450  16.4664780  13.3210690  80.3257620  29.1107930
  12.5958880  80.9186400  28.9137320  13.8486150  80.3181160  28.3121300
   4.2400770  79.8161510  19.6287550   4.6963550  80.6266760  19.8547740
   3.8888980  79.4984650  20.4606040   8.6345260  74.4112590  27.3118220
   9.0026080  73.5907800  27.6397790   7.7743460  74.4714480  27.7273870
  12.0007290  73.3669530  18.1205780  11.3720450  73.4715200  17.4064010
  11.5059210  73.5866310  18.9099660   3.9691320  75.6455480  19.5363660
   3.2607470  76.1141820  19.9777270   4.2535800  74.9877490  20.1708850
   5.5947250  77.0652180  27.5356190   6.0932500  77.5398000  28.2008040
   5.7370200  76.1415700  27.7426220   8.0006750  72.3706140  20.9759450
   7.8774530  72.3892270  20.0268960   8.9491310  72.4185080  21.0957850
   2.1726340  73.9540560  16.9114370   3.0216870  74.3910710  16.8454560
   1.8057610  74.2660820  17.7386430  12.8014110  73.2820140  28.3784580
  12.2987710  74.0225540  28.7178390  13.6170770  73.6704140  28.0621370
  11.0936120  78.5253320  21.8245940  10.1526260  78.5403550  21.9993630
  11.4080190  77.7389280  22.2706240   3.1036790  80.2038050  17.3592540
   3.5253210  80.0377920  18.2023930   3.2287630  79.3938280  16.8647680
   5.6164430  79.2275660  14.6069640   6.1370090  78.5124680  14.2410790
   6.2632830  79.8661530  14.9070150  10.1642270  80.6504060  29.9304710
  10.5783290  80.8049140  30.7795130   9.2293270  80.7759280  30.0930490
  10.6364440  77.9900220  31.9343860  11.2185210  77.2352540  31.8464340
  10.8126210  78.5207660  31.1575340   4.5197950  71.7070210  27.2788200
   4.0715250  71.7294470  26.4333750   3.8863150  71.3089230  27.8758500
   7.2621400  78.3340720  29.2838480   7.3817610  77.7381860  30.0233320
   8.1215400  78.3710410  28.8639780   9.6009300  78.8877910  27.8600990
   9.0744520  79.4120530  27.2566130   9.9440640  79.5205300  28.4910720
   1.9995690  76.2771280  14.3050700   1.7984750  75.4138640  14.6664040
   1.8287740  76.1904640  13.3672300   4.0290170  74.8762070  30.5414300
   4.6189860  74.5677920  31.2292120   3.2110410  74.4041820  30.6974200
   8.8483600  74.4927880  30.7747320   8.1599120  73.8309420  30.7097310
   9.5689620  74.0466150  31.2195780   9.4784000  71.0879510  16.8337580
   9.7586290  70.2447410  17.1897000   8.7049730  71.3202620  17.3476330
   4.0163420  72.3206520  15.2784780   3.6685420  71.6430510  14.6987230
   4.2176190  71.8596030  16.0928170  13.8564720  80.3256240  17.4441490
  14.6183630  80.8952890  17.5501180  13.8719090  79.7583440  18.2149800
  10.3059500  73.6435460  15.8967640  10.7244380  73.4566440  15.0564300
   9.9995560  72.7914510  16.2070570  13.8049230  78.5559600  19.5943440
  13.4292830  77.7887530  19.1624730  13.0752350  78.9382300  20.0818370
  13.1948850  77.7031120  29.2282960  12.9634940  77.4743870  28.3280910
  13.4553400  78.6230670  29.1827850  11.6336920  72.9287550  32.0062660
  12.5107100  72.9370950  32.3896660  11.6457760  72.1918390  31.3955010
  13.0800190  76.7817090  22.8950680  13.6037670  76.2879740  22.2640850
  13.6659610  76.9167450  23.6398250  13.2589910  76.8656960  26.4170230
  12.3092620  76.8320500  26.5315220  13.4402920  77.7757070  26.1820000
  12.5700160  76.0390440  18.8343090  13.0659280  75.8061310  19.6191970
  12.3716230  75.2002280  18.4180730  13.9987320  74.6751390  21.3680770
  13.8886600  74.5207430  22.3063040  14.7594910  74.1472330  21.1256180
  12.3453040  70.6145520  27.8263770  12.9825260  71.2279660  28.1922960
  12.4927930  70.6506180  26.8813000  14.8877590  72.5059310  14.6086910
  15.8126900  72.3740490  14.4005200  14.8653380  72.5852130  15.5623360
  14.9616080  73.2769970  17.2343620  14.1667580  73.2115090  17.7636530
  15.1659360  74.2120610  17.2228970   5.7157520  71.7671710  30.7338870
   5.6546410  72.3593540  31.4834280   6.6557900  71.6597670  30.5889130
   8.3532080  71.4241770  30.3731160   8.9672490  71.7421060  29.7112240
   8.8981640  70.9390360  30.9927020   9.0940120  69.9873910  26.7000450
   8.2199960  70.3209020  26.4973380   8.9850870  69.5147090  27.5252320
  10.0012100  72.1944780  28.0842170   9.6725460  71.3796540  27.7043900
  10.9494400  72.1514590  27.9607860   6.8414940  70.9043750  25.6393360
   6.0586730  71.3789250  25.9190120   6.5477870  69.9998580  25.5306540
  11.3936010  71.6066850  23.6842450  11.8344100  71.5511950  22.8364050
  11.1243600  72.5224860  23.7552630  13.2574580  71.2382090  21.6951270
  13.1962980  70.2943310  21.5482290  14.0366610  71.3462180  22.2404730
   4.7269160  73.3230500  21.1509390   3.9143670  72.9487390  20.8105270
   5.2310800  72.5675580  21.4530580   9.2294140  69.9872950  22.3892460
   9.8323510  70.5593160  22.8640980   8.4887130  70.5512390  22.1666360
  12.3728740  70.3894510  17.6632740  12.5679370  71.2877960  17.9300170
  11.5858610  70.1581590  18.1565690   2.7518340  71.4730420  19.7554440
   2.1221080  70.7717730  19.9224570   2.2123480  72.2334550  19.5387600
   2.8773900  70.7514400  32.1906930   2.5958170  71.2548000  31.4267750
   3.2593600  69.9536150  31.8249060   9.4789360  70.1667980  32.7687400
   9.3654810  70.4862590  33.6638920  10.2959100  70.5680490  32.4724680
   8.3847510  78.1860450   3.1322140   8.3041560  77.2715060   2.8613850
   7.9711930  78.6827520   2.4261850   6.5165550  79.9639470   5.0131410
   5.7407650  79.4839910   5.3029980   7.1678480  79.2845120   4.8387570
   6.9879710  75.4467040   5.2470500   7.3644530  74.5738920   5.1344170
   6.8899220  75.7825740   4.3560940  10.7703830  72.9417480   2.1798840
  11.5913450  72.4514050   2.2224320  10.8037910  73.5315140   2.9330680
   2.9592450  76.7879040   5.0413120   3.4670670  77.2860010   5.6818140
   3.4905690  76.0114240   4.8652480  15.0603380  74.9584230   8.7442470
  14.3555550  75.3465940   8.2257580  15.3261300  75.6534520   9.3463400
  11.0065310  74.8817860   4.9526380  10.3020880  75.1702750   5.5329490
  11.3677470  75.6917970   4.5925940  14.0752230  74.3272650   5.3435590
  13.1277140  74.3611630   5.4751020  14.4002220  75.1411600   5.7284950
   4.6071770  70.6269830   3.6391580   4.9146750  70.0716720   2.9227080
   3.6772470  70.7614290   3.4564570  13.5034370  79.6454180   7.3497890
  12.6753000  79.7147270   6.8748020  14.0984850  80.2308490   6.8813720
  10.4676380  76.4323500   8.2952760  10.0547560  77.2577210   8.5492750
   9.7352330  75.8468540   8.1029120   2.6009170  79.2183400   3.1571430
   2.1966170  78.5060650   2.6617330   2.6872290  78.8736640   4.0459470
  13.9932950  75.4840080  12.1774880  13.3777220  75.9919750  11.6490340
  13.6729370  74.5838410  12.1200820   6.0547270  74.3231970   9.6437070
   5.5926640  74.5314990  10.4557010   5.6525380  73.5091320   9.3407740
  11.0551780  75.5440920  10.7733730  10.2045370  75.2446670  11.0942800
  10.8953570  75.7882930   9.8617550   8.1501490  77.0442670  12.8732520
   8.4754900  76.2106420  12.5334750   8.9381820  77.5671190  13.0210850
   3.8053360  72.0010780   5.8991350   4.1025690  72.9073610   5.8183370
   4.3538920  71.5129560   5.2850920   3.9990890  77.4782600  12.4343270
   3.9034490  76.5377330  12.2843670   4.8422870  77.6997670  12.0391340
   7.3954310  75.2223930   2.3976930   7.7883880  75.5396130   1.5845620
   7.7571160  74.3435810   2.5121450   5.7046480  73.9731240  13.6573790
   5.0144800  73.7803440  14.2919880   6.4478780  74.2565880  14.1898090
   7.9809450  77.8129680   6.4927710   7.2490570  78.3216490   6.8417810
   7.5833790  76.9959660   6.1916490   4.4186840  74.4883880   4.8980200
   4.4222900  74.0473830   4.0484740   5.3137960  74.8101210   5.0052020
   8.4435360  73.2663360   5.9050650   8.4608100  73.7172010   6.7492500
   8.1950940  72.3669000   6.1184090  11.8706110  70.6795540  11.7437030
  12.1951880  69.9485200  12.2695010  11.9062620  70.3609180  10.8418020
   4.7194810  78.5485660   6.6445610   5.0864940  78.0744230   7.3906950
   4.5299870  79.4227230   6.9853950   2.5094180  77.5894300   8.9629820
   2.2051250  78.4686280   9.1880180   3.4640640  77.6494090   8.9987260
  11.7963950  80.7920650   5.3523060  12.5163070  81.2875940   4.9619170
  11.5945770  80.1138540   4.7076930   7.1782750  80.8629710  11.2392060
   7.1120060  79.9425380  10.9849650   6.5487890  80.9605150  11.9536700
  13.3210690  80.3257620  10.3364440  12.5958880  80.9186400  10.1393830
  13.8486150  80.3181160   9.5377810   8.6345260  74.4112590   8.5374730
   9.0026080  73.5907800   8.8654300   7.7743460  74.4714480   8.9530380
   5.5947250  77.0652180   8.7612700   6.0932500  77.5398000   9.4264550
   5.7370200  76.1415700   8.9682730  12.8014110  73.2820140   9.6041090
  12.2987710  74.0225540   9.9434900  13.6170770  73.6704140   9.2877880
  11.0936120  78.5253320   3.0502450  10.1526260  78.5403550   3.2250140
  11.4080190  77.7389280   3.4962750  10.1642270  80.6504060  11.1561220
  10.5783290  80.8049140  12.0051640   9.2293270  80.7759280  11.3187000
  10.6364440  77.9900220  13.1600370  11.2185210  77.2352540  13.0720850
  10.8126210  78.5207660  12.3831850   4.5197950  71.7070210   8.5044710
   4.0715250  71.7294470   7.6590260   3.8863150  71.3089230   9.1015010
   7.2621400  78.3340720  10.5094990   7.3817610  77.7381860  11.2489830
   8.1215400  78.3710410  10.0896290   9.6009300  78.8877910   9.0857500
   9.0744520  79.4120530   8.4822640   9.9440640  79.5205300   9.7167230
   4.0290170  74.8762070  11.7670810   4.6189860  74.5677920  12.4548630
   3.2110410  74.4041820  11.9230710   8.8483600  74.4927880  12.0003830
   8.1599120  73.8309420  11.9353820   9.5689620  74.0466150  12.4452290
  13.1948850  77.7031120  10.4539470  12.9634940  77.4743870   9.5537420
  13.4553400  78.6230670  10.4084360  11.6336920  72.9287550  13.2319170
  12.5107100  72.9370950  13.6153170  11.6457760  72.1918390  12.6211520
  13.0800190  76.7817090   4.1207190  13.6037670  76.2879740   3.4897360
  13.6659610  76.9167450   4.8654760  13.2589910  76.8656960   7.6426740
  12.3092620  76.8320500   7.7571730  13.4402920  77.7757070   7.4076510
  13.9987320  74.6751390   2.5937280  13.8886600  74.5207430   3.5319550
  14.7594910  74.1472330   2.3512690  12.3453040  70.6145520   9.0520280
  12.9825260  71.2279660   9.4179470  12.4927930  70.6506180   8.1069510
   5.7157520  71.7671710  11.9595380   5.6546410  72.3593540  12.7090790
   6.6557900  71.6597670  11.8145640   8.3532080  71.4241770  11.5987670
   8.9672490  71.7421060  10.9368750   8.8981640  70.9390360  12.2183530
   9.0940120  69.9873910   7.9256960   8.2199960  70.3209020   7.7229890
   8.9850870  69.5147090   8.7508830  10.0012100  72.1944780   9.3098680
   9.6725460  71.3796540   8.9300410  10.9494400  72.1514590   9.1864370
   6.8414940  70.9043750   6.8649870   6.0586730  71.3789250   7.1446630
   6.5477870  69.9998580   6.7563050  11.3936010  71.6066850   4.9098960
  11.8344100  71.5511950   4.0620560  11.1243600  72.5224860   4.9809140
  13.2574580  71.2382090   2.9207780  13.1962980  70.2943310   2.7738800
  14.0366610  71.3462180   3.4661240   4.7269160  73.3230500   2.3765900
   3.9143670  72.9487390   2.0361780   5.2310800  72.5675580   2.6787090
   9.2294140  69.9872950   3.6148970   9.8323510  70.5593160   4.0897490
   8.4887130  70.5512390   3.3922870   2.8773900  70.7514400  13.4163440
   2.5958170  71.2548000  12.6524260   3.2593600  69.9536150  13.0505570
   9.4789360  70.1667980  13.9943910   9.3654810  70.4862590  14.8895430
  10.2959100  70.5680490  13.6981190   8.3847510  59.4116960  78.2296100
   8.3041560  58.4971570  77.9587810   7.9711930  59.9084030  77.5235810
   6.5165550  61.1895980  80.1105370   5.7407650  60.7096420  80.4003940
   7.1678480  60.5101630  79.9361530  10.5372980  65.5956170  78.8904500
  10.0754510  64.8243410  79.2191670  11.3498530  65.6222240  79.3956950
   6.7636290  67.8814180  78.5108490   6.1447730  68.3371680  77.9402930
   7.6188070  68.0365640  78.1098190   5.9574540  63.8653170  80.1175530
   5.8882820  62.9243110  79.9564660   6.7194400  63.9554580  80.6898100
   6.9879710  56.6723550  80.3444460   7.3644530  55.7995430  80.2318130
   6.8899220  57.0082250  79.4534900  10.7703830  54.1673990  77.2772800
  11.5913450  53.6770560  77.3198280  10.8037910  54.7571650  78.0304640
   2.9592450  58.0135550  80.1387080   3.4670670  58.5116520  80.7792100
   3.4905690  57.2370750  79.9626440   7.6299640  62.7653420  75.9040400
   7.0116910  63.2302870  75.3403120   8.1422890  63.4580900  76.3209910
   2.4931400  62.2929290  82.5824000   2.1600780  62.9198210  83.2245070
   2.6698080  62.8191170  81.8025670  11.0065310  56.1074370  80.0500340
  10.3020880  56.3959260  80.6303450  11.3677470  56.9174480  79.6899900
  12.6228090  65.7249500  82.3127820  11.9391610  66.3948610  82.3044490
  13.1622380  65.9230150  81.5472680  14.0752230  55.5529160  80.4409550
  13.1277140  55.5868140  80.5724980  14.4002220  56.3668110  80.8258910
   4.6071770  51.8526340  78.7365540   4.9146750  51.2973230  78.0201040
   3.6772470  51.9870800  78.5538530  10.1586830  67.5693630  81.0273000
  10.1713990  67.1655920  80.1595260   9.6062050  68.3440920  80.9234430
  11.4532250  64.2909850  76.1163170  11.3428580  63.3484180  76.2412590
  11.4500500  64.6525490  77.0025930   9.5572270  62.4723470  82.3555610
   9.9741060  62.2583580  81.5209070  10.2812090  62.7296260  82.9264230
   6.9952530  59.9175170  75.4725660   6.0681810  59.8512550  75.7014130
   7.1477350  60.8555300  75.3580900   6.9821610  56.1892170  72.4692820
   6.0425280  56.3506130  72.5545280   7.3004870  56.9077850  71.9228810
  13.5034370  60.8710690  82.4471850  12.6753000  60.9403780  81.9721980
  14.0984850  61.4565000  81.9787680  11.0249820  61.4795470  75.9760910
  10.4062240  61.1415020  75.3287210  11.0074270  60.8355230  76.6840100
   2.6009170  60.4439910  78.2545390   2.1966170  59.7317160  77.7591290
   2.6872290  60.0993150  79.1433430   3.0690870  64.1307470  80.4184600
   2.7719160  63.5252940  79.7392380   4.0190690  64.1684780  80.3073960
   9.2014520  60.7182280  72.9833660   9.6407800  59.8804710  72.8371480
   9.9142940  61.3511680  73.0697800   7.3109900  65.6578350  76.9514900
   7.7505810  66.4002680  76.5370290   7.2496790  65.9004920  77.8753860
  12.7831660  51.9725090  71.2974700  12.4704320  52.0651920  72.1973770
  13.5444130  52.5506120  71.2472130   9.9780080  68.6447470  74.3077910
   9.8181220  68.3550410  75.2059740   9.8126790  67.8687600  73.7723140
   2.4568460  68.4246000  76.0849530   2.2810940  67.5081540  75.8717330
   1.6024200  68.7833290  76.3247330   9.6806210  66.1535030  72.8675910
   8.9871370  66.1512320  72.2078190  10.4229070  65.7294350  72.4370080
   9.2456140  67.7797740  76.9424400   9.7013090  66.9987120  77.2563020
   9.5848660  68.4904560  77.4865580   4.8836280  52.3030660  74.0181540
   4.2590460  52.2990530  74.7434850   4.7966400  51.4361620  73.6217510
   3.8053360  53.2267290  80.9965310   4.1025690  54.1330120  80.9157330
   4.3538920  52.7386070  80.3824880   8.7889440  57.8116900  75.4647610
   8.1898330  58.5352700  75.2811230   9.3369050  57.7493680  74.6824060
   7.3954310  56.4480440  77.4950890   7.7883880  56.7652640  76.6819580
   7.7571160  55.5692320  77.6095410   7.9809450  59.0386190  81.5901670
   7.2490570  59.5473000  81.9391770   7.5833790  58.2216170  81.2890450
   4.4186840  55.7140390  79.9954160   4.4222900  55.2730340  79.1458700
   5.3137960  56.0357720  80.1025980   4.4806990  56.7152470  72.9860920
   4.6019810  56.6738950  73.9346740   4.0955500  57.5776620  72.8307650
   8.4435360  54.4919870  81.0024610   8.4608100  54.9428520  81.8466460
   8.1950940  53.5925510  81.2158050   3.4928490  59.0253610  72.3844220
   2.9245390  58.5771860  71.7580130   4.2017490  59.3846390  71.8509370
   4.7194810  59.7742170  81.7419570   5.0864940  59.3000740  82.4880910
   4.5299870  60.6483740  82.0827910  11.7963950  62.0177160  80.4497020
  12.5163070  62.5132450  80.0593130  11.5945770  61.3395050  79.8050890
   7.2573890  53.4115120  74.5926410   6.4438500  52.9128290  74.5171720
   7.0635840  54.2513370  74.1762760   9.9722280  57.7834770  72.8888570
  10.8601900  58.0952000  72.7139910   9.9427370  56.9107020  72.4969150
   5.9682870  63.9558460  73.5676740   6.3098570  64.7000690  73.0720060
   5.1395580  64.2689580  73.9301570  12.2436550  59.0946610  72.3568430
  12.1600270  59.5260830  71.5064870  12.9630740  59.5544960  72.7895250
  13.2723800  65.9488870  75.0850560  12.6299960  65.2944490  75.3594280
  12.8854460  66.3543960  74.3091230   8.8510280  63.2774300  78.9322250
   9.2034100  62.6802430  78.2723620   7.9672610  62.9518530  79.1030500
   4.9373560  64.0371990  76.3392660   5.6244690  64.5841200  76.7200250
   4.1505980  64.5812720  76.3742270   4.2400770  61.0418020  75.9518020
   4.6963550  61.8523270  76.1778210   3.8888980  60.7241160  76.7836510
   7.8165460  64.5556710  81.8987770   8.4587690  63.8549870  82.0119940
   8.3414810  65.3355150  81.7184660  11.6621180  64.8405330  71.6226910
  11.4358760  64.1235770  72.2151550  11.2717380  64.5917770  70.7848660
  11.2437430  62.7577270  73.2841070  10.9559130  63.2189960  74.0718950
  12.0389600  62.2975040  73.5525290   3.4605830  66.2503390  73.2145040
   3.4515930  66.9833080  72.5989550   2.5404190  66.0034970  73.3072000
  12.0007290  54.5926040  74.4436250  11.3720450  54.6971710  73.7294480
  11.5059210  54.8122820  75.2330130   6.4465430  66.3131630  71.8770230
   6.5477410  66.1095620  70.9472210   5.5467170  66.0589910  72.0818010
   3.9691320  56.8711990  75.8594130   3.2607470  57.3398330  76.3007740
   4.2535800  56.2134000  76.4939320   8.0006750  53.5962650  77.2989920
   7.8774530  53.6148780  76.3499430   8.9491310  53.6441590  77.4188320
   5.0883540  68.8317950  76.5717900   5.3425040  68.7939340  75.6497270
   4.1396020  68.7051280  76.5646150   2.1726340  55.1797070  73.2344840
   3.0216870  55.6167220  73.1685030   1.8057610  55.4917330  74.0616900
  11.0936120  59.7509830  78.1476410  10.1526260  59.7660060  78.3224100
  11.4080190  58.9645790  78.5936710  13.0961700  66.9218680  79.8230670
  13.2209120  67.7449850  80.2954480  13.9627260  66.7109410  79.4754820
   3.6781540  68.1880200  71.3173370   4.4710150  68.4769030  70.8655160
   3.1585890  67.7572370  70.6385850  12.7311710  67.4150330  72.7410110
  12.4453220  67.0015470  71.9264290  12.5331260  68.3438040  72.6210630
   4.1958940  63.4083610  71.1815720   4.0909580  62.7935960  71.9077100
   4.0283160  62.8849500  70.3978730   7.4361670  62.4703640  71.7857710
   6.8871770  62.9172940  72.4300450   8.0580930  61.9652890  72.3095380
   3.1036790  61.4294560  73.6823010   3.5253210  61.2634430  74.5254400
   3.2287630  60.6194790  73.1878150   5.6164430  60.4532170  70.9300110
   6.1370090  59.7381190  70.5641260   6.2632830  61.0918040  71.2300620
   1.9995690  57.5027790  70.6281170   1.7984750  56.6395150  70.9894510
   1.8287740  57.4161150  69.6902770   9.4784000  52.3136020  73.1568050
   9.7586290  51.4703920  73.5127470   8.7049730  52.5459130  73.6706800
   4.0163420  53.5463030  71.6015250   3.6685420  52.8687020  71.0217700
   4.2176190  53.0852540  72.4158640   6.1812460  68.5343780  73.2201850
   7.0763250  68.8728750  73.2420610   6.2130090  67.8123190  72.5926130
  14.4008260  64.8065270  71.2637760  13.5701220  64.8741920  71.7344990
  14.5780090  65.6969390  70.9604620  13.8564720  61.5512750  73.7671960
  14.6183630  62.1209400  73.8731650  13.8719090  60.9839950  74.5380270
  14.8624690  62.4062850  78.6113890  15.2333520  61.6230170  78.2049860
  15.5026620  63.0951950  78.4331190  13.9083890  61.8447120  70.9244480
  14.1832730  62.7526000  70.7963700  13.7194630  61.7809650  71.8606470
  10.3059500  54.8691970  72.2198110  10.7244380  54.6822950  71.3794770
   9.9995560  54.0171020  72.5301040  13.8049230  59.7816110  75.9173910
  13.4292830  59.0144040  75.4855200  13.0752350  60.1638810  76.4048840
  13.0800190  58.0073600  79.2181150  13.6037670  57.5136250  78.5871320
  13.6659610  58.1423960  79.9628720  13.2589910  58.0913470  82.7400700
  12.3092620  58.0577010  82.8545690  13.4402920  59.0013580  82.5050470
  12.5700160  57.2646950  75.1573560  13.0659280  57.0317820  75.9422440
  12.3716230  56.4258790  74.7411200  13.9987320  55.9007900  77.6911240
  13.8886600  55.7463940  78.6293510  14.7594910  55.3728840  77.4486650
  14.8877590  53.7315820  70.9317380  15.8126900  53.5997000  70.7235670
  14.8653380  53.8108640  71.8853830  14.9616080  54.5026480  73.5574090
  14.1667580  54.4371600  74.0867000  15.1659360  55.4377120  73.5459440
  11.9034500  68.5418030  77.5512480  12.4993570  68.2202600  76.8746900
  12.1612650  68.0689850  78.3425750  12.4546710  69.1913330  81.3810210
  11.9949680  69.9429140  81.0068230  11.8259170  68.4719800  81.3225010
   2.8842430  67.5001570  80.5558340   3.4007450  66.8888930  80.0306600
   3.5339810  68.0030350  81.0469350   5.6237930  68.3910060  81.3827320
   5.9115740  68.1364360  80.5060330   6.1361150  67.8387420  81.9732890
   6.8414940  52.1300260  81.9623830   6.0586730  52.6045760  82.2420590
   6.5477870  51.2255090  81.8537010  11.3936010  52.8323360  80.0072920
  11.8344100  52.7768460  79.1594520  11.1243600  53.7481370  80.0783100
  13.2574580  52.4638600  78.0181740  13.1962980  51.5199820  77.8712760
  14.0366610  52.5718690  78.5635200   4.7269160  54.5487010  77.4739860
   3.9143670  54.1743900  77.1335740   5.2310800  53.7932090  77.7761050
   9.2294140  51.2129460  78.7122930   9.8323510  51.7849670  79.1871450
   8.4887130  51.7768900  78.4896830  12.3728740  51.6151020  73.9863210
  12.5679370  52.5134470  74.2530640  11.5858610  51.3838100  74.4796160
   2.7518340  52.6986930  76.0784910   2.1221080  51.9974240  76.2455040
   2.2123480  53.4591060  75.8618070  13.9255350  68.8551730  75.7469770
  14.1007540  68.1689470  75.1030690  13.2276920  69.3798780  75.3546440
   1.7683000  69.2446570  73.3005080   2.5001820  68.9605850  72.7528970
   2.0276670  69.0059850  74.1904460   8.3847510  59.4116960  59.4552610
   8.3041560  58.4971570  59.1844320   7.9711930  59.9084030  58.7492320
   6.5165550  61.1895980  61.3361880   5.7407650  60.7096420  61.6260450
   7.1678480  60.5101630  61.1618040  10.5372980  65.5956170  60.1161010
  10.0754510  64.8243410  60.4448180  11.3498530  65.6222240  60.6213460
   6.7636290  67.8814180  59.7365000   6.1447730  68.3371680  59.1659440
   7.6188070  68.0365640  59.3354700   5.9574540  63.8653170  61.3432040
   5.8882820  62.9243110  61.1821170   6.7194400  63.9554580  61.9154610
   6.9879710  56.6723550  61.5700970   7.3644530  55.7995430  61.4574640
   6.8899220  57.0082250  60.6791410  10.7703830  54.1673990  58.5029310
  11.5913450  53.6770560  58.5454790  10.8037910  54.7571650  59.2561150
   2.9592450  58.0135550  61.3643590   3.4670670  58.5116520  62.0048610
   3.4905690  57.2370750  61.1882950  15.0603380  56.1840740  65.0672940
  14.3555550  56.5722450  64.5488050  15.3261300  56.8791030  65.6693870
   7.6299640  62.7653420  57.1296910   7.0116910  63.2302870  56.5659630
   8.1422890  63.4580900  57.5466420   2.4931400  62.2929290  63.8080510
   2.1600780  62.9198210  64.4501580   2.6698080  62.8191170  63.0282180
  11.0065310  56.1074370  61.2756850  10.3020880  56.3959260  61.8559960
  11.3677470  56.9174480  60.9156410  12.6228090  65.7249500  63.5384330
  11.9391610  66.3948610  63.5301000  13.1622380  65.9230150  62.7729190
  14.0752230  55.5529160  61.6666060  13.1277140  55.5868140  61.7981490
  14.4002220  56.3668110  62.0515420   4.6071770  51.8526340  59.9622050
   4.9146750  51.2973230  59.2457550   3.6772470  51.9870800  59.7795040
  10.1586830  67.5693630  62.2529510  10.1713990  67.1655920  61.3851770
   9.6062050  68.3440920  62.1490940  11.4532250  64.2909850  57.3419680
  11.3428580  63.3484180  57.4669100  11.4500500  64.6525490  58.2282440
   9.5572270  62.4723470  63.5812120   9.9741060  62.2583580  62.7465580
  10.2812090  62.7296260  64.1520740   6.9952530  59.9175170  56.6982170
   6.0681810  59.8512550  56.9270640   7.1477350  60.8555300  56.5837410
   6.9821610  56.1892170  53.6949330   6.0425280  56.3506130  53.7801790
   7.3004870  56.9077850  53.1485320  13.5034370  60.8710690  63.6728360
  12.6753000  60.9403780  63.1978490  14.0984850  61.4565000  63.2044190
  11.0249820  61.4795470  57.2017420  10.4062240  61.1415020  56.5543720
  11.0074270  60.8355230  57.9096610  10.4676380  57.6580010  64.6183230
  10.0547560  58.4833720  64.8723220   9.7352330  57.0725050  64.4259590
   2.6009170  60.4439910  59.4801900   2.1966170  59.7317160  58.9847800
   2.6872290  60.0993150  60.3689940   3.0690870  64.1307470  61.6441110
   2.7719160  63.5252940  60.9648890   4.0190690  64.1684780  61.5330470
  11.1576480  67.7039340  65.3064210  10.6807040  68.5111530  65.1136820
  10.4738270  67.0517670  65.4590420   9.2014520  60.7182280  54.2090170
   9.6407800  59.8804710  54.0627990   9.9142940  61.3511680  54.2954310
   7.3109900  65.6578350  58.1771410   7.7505810  66.4002680  57.7626800
   7.2496790  65.9004920  59.1010370   2.7860870  66.6824180  69.0791430
   2.7576300  67.0867130  68.2119860   2.6225840  65.7534540  68.9163030
  12.7831660  51.9725090  52.5231210  12.4704320  52.0651920  53.4230280
  13.5444130  52.5506120  52.4728640  14.7375690  67.4651280  70.3755600
  15.2135410  67.9434170  71.0544680  15.3582850  67.3968770  69.6501100
  14.1408940  64.6564130  67.5355610  14.2672000  64.4176010  66.6172790
  14.1830320  63.8248670  68.0077690   8.0025680  68.3592130  66.1050420
   8.5170350  68.2700140  66.9072850   7.1594760  68.7051830  66.3978330
   9.9780080  68.6447470  55.5334420   9.8181220  68.3550410  56.4316250
   9.8126790  67.8687600  54.9979650   2.4568460  68.4246000  57.3106040
   2.2810940  67.5081540  57.0973840   1.6024200  68.7833290  57.5503840
   9.6806210  66.1535030  54.0932420   8.9871370  66.1512320  53.4334700
  10.4229070  65.7294350  53.6626590   9.2456140  67.7797740  58.1680910
   9.7013090  66.9987120  58.4819530   9.5848660  68.4904560  58.7122090
  13.9932950  56.7096590  68.5005350  13.3777220  57.2176260  67.9720810
  13.6729370  55.8094920  68.4431290   6.0547270  55.5488480  65.9667540
   5.5926640  55.7571500  66.7787480   5.6525380  54.7347830  65.6638210
  11.0551780  56.7697430  67.0964200  10.2045370  56.4703180  67.4173270
  10.8953570  57.0139440  66.1848020   8.1501490  58.2699180  69.1962990
   8.4754900  57.4362930  68.8565220   8.9381820  58.7927700  69.3441320
   4.8836280  52.3030660  55.2438050   4.2590460  52.2990530  55.9691360
   4.7966400  51.4361620  54.8474020   3.8053360  53.2267290  62.2221820
   4.1025690  54.1330120  62.1413840   4.3538920  52.7386070  61.6081390
   8.7889440  57.8116900  56.6904120   8.1898330  58.5352700  56.5067740
   9.3369050  57.7493680  55.9080570   3.9990890  58.7039110  68.7573740
   3.9034490  57.7633840  68.6074140   4.8422870  58.9254180  68.3621810
   7.3954310  56.4480440  58.7207400   7.7883880  56.7652640  57.9076090
   7.7571160  55.5692320  58.8351920   5.7046480  55.1987750  69.9804260
   5.0144800  55.0059950  70.6150350   6.4478780  55.4822390  70.5128560
   7.9809450  59.0386190  62.8158180   7.2490570  59.5473000  63.1648280
   7.5833790  58.2216170  62.5146960   4.4186840  55.7140390  61.2210670
   4.4222900  55.2730340  60.3715210   5.3137960  56.0357720  61.3282490
   4.4806990  56.7152470  54.2117430   4.6019810  56.6738950  55.1603250
   4.0955500  57.5776620  54.0564160   8.4435360  54.4919870  62.2281120
   8.4608100  54.9428520  63.0722970   8.1950940  53.5925510  62.4414560
   3.4928490  59.0253610  53.6100730   2.9245390  58.5771860  52.9836640
   4.2017490  59.3846390  53.0765880  11.8706110  51.9052050  68.0667500
  12.1951880  51.1741710  68.5925480  11.9062620  51.5865690  67.1648490
   4.7194810  59.7742170  62.9676080   5.0864940  59.3000740  63.7137420
   4.5299870  60.6483740  63.3084420   2.5094180  58.8150810  65.2860290
   2.2051250  59.6942790  65.5110650   3.4640640  58.8750600  65.3217730
  11.7963950  62.0177160  61.6753530  12.5163070  62.5132450  61.2849640
  11.5945770  61.3395050  61.0307400   7.2573890  53.4115120  55.8182920
   6.4438500  52.9128290  55.7428230   7.0635840  54.2513370  55.4019270
   7.1782750  62.0886220  67.5622530   7.1120060  61.1681890  67.3080120
   6.5487890  62.1861660  68.2767170   9.9722280  57.7834770  54.1145080
  10.8601900  58.0952000  53.9396420   9.9427370  56.9107020  53.7225660
   5.9682870  63.9558460  54.7933250   6.3098570  64.7000690  54.2976570
   5.1395580  64.2689580  55.1558080   7.1099480  64.9106790  67.3126330
   7.1244020  63.9787750  67.0945240   6.4024580  64.9966550  67.9516100
  12.2436550  59.0946610  53.5824940  12.1600270  59.5260830  52.7321380
  12.9630740  59.5544960  54.0151760  13.3210690  61.5514130  66.6594910
  12.5958880  62.1442910  66.4624300  13.8486150  61.5437670  65.8608280
  13.2723800  65.9488870  56.3107070  12.6299960  65.2944490  56.5850790
  12.8854460  66.3543960  55.5347740   8.8510280  63.2774300  60.1578760
   9.2034100  62.6802430  59.4980130   7.9672610  62.9518530  60.3287010
   4.9373560  64.0371990  57.5649170   5.6244690  64.5841200  57.9456760
   4.1505980  64.5812720  57.5998780   4.2400770  61.0418020  57.1774530
   4.6963550  61.8523270  57.4034720   3.8888980  60.7241160  58.0093020
   6.5433380  66.5524360  64.4066830   7.1875600  66.7583740  65.0840250
   6.9062820  65.7912760  63.9537680   7.8165460  64.5556710  63.1244280
   8.4587690  63.8549870  63.2376450   8.3414810  65.3355150  62.9441170
  11.6621180  64.8405330  52.8483420  11.4358760  64.1235770  53.4408060
  11.2717380  64.5917770  52.0105170   9.5903080  65.3551610  66.3280340
   9.9259320  65.9418300  67.0058260   8.6703420  65.2244320  66.5578130
  11.2437430  62.7577270  54.5097580  10.9559130  63.2189960  55.2975460
  12.0389600  62.2975040  54.7781800   5.4191660  65.4042940  69.4968400
   5.0988530  64.6852180  70.0414090   4.7450020  66.0798010  69.5704460
   3.4605830  66.2503390  54.4401550   3.4515930  66.9833080  53.8246060
   2.5404190  66.0034970  54.5328510   8.6345260  55.6369100  64.8605200
   9.0026080  54.8164310  65.1884770   7.7743460  55.6970990  65.2760850
  12.0007290  54.5926040  55.6692760  11.3720450  54.6971710  54.9550990
  11.5059210  54.8122820  56.4586640   6.4465430  66.3131630  53.1026740
   6.5477410  66.1095620  52.1728720   5.5467170  66.0589910  53.3074520
   3.9691320  56.8711990  57.0850640   3.2607470  57.3398330  57.5264250
   4.2535800  56.2134000  57.7195830   5.5947250  58.2908690  65.0843170
   6.0932500  58.7654510  65.7495020   5.7370200  57.3672210  65.2913200
   8.0006750  53.5962650  58.5246430   7.8774530  53.6148780  57.5755940
   8.9491310  53.6441590  58.6444830   5.0883540  68.8317950  57.7974410
   5.3425040  68.7939340  56.8753780   4.1396020  68.7051280  57.7902660
   2.1726340  55.1797070  54.4601350   3.0216870  55.6167220  54.3941540
   1.8057610  55.4917330  55.2873410  12.8014110  54.5076650  65.9271560
  12.2987710  55.2482050  66.2665370  13.6170770  54.8960650  65.6108350
  11.0936120  59.7509830  59.3732920  10.1526260  59.7660060  59.5480610
  11.4080190  58.9645790  59.8193220  13.0961700  66.9218680  61.0487180
  13.2209120  67.7449850  61.5210990  13.9627260  66.7109410  60.7011330
   3.6781540  68.1880200  52.5429880   4.4710150  68.4769030  52.0911670
   3.1585890  67.7572370  51.8642360   8.4102140  64.3075830  69.8565300
   7.8040300  64.3307430  69.1161050   8.1056250  63.5758870  70.3932550
   9.8402510  68.0356120  68.4674710  10.7924260  67.9514140  68.4174950
   9.6930730  68.6997830  69.1408500  12.7311710  67.4150330  53.9666620
  12.4453220  67.0015470  53.1520800  12.5331260  68.3438040  53.8467140
   4.1958940  63.4083610  52.4072230   4.0909580  62.7935960  53.1333610
   4.0283160  62.8849500  51.6235240   4.3473260  62.0940410  68.3861460
   3.5818930  62.6625410  68.3016130   4.5289220  61.8016620  67.4929690
   7.4361670  62.4703640  53.0114220   6.8871770  62.9172940  53.6556960
   8.0580930  61.9652890  53.5351890  11.4896610  63.8245740  68.9436480
  12.2306080  64.1621500  68.4403940  10.7269290  63.9937800  68.3906250
   3.1036790  61.4294560  54.9079520   3.5253210  61.2634430  55.7510910
   3.2287630  60.6194790  54.4134660   5.6164430  60.4532170  52.1556620
   6.1370090  59.7381190  51.7897770   6.2632830  61.0918040  52.4557130
  10.1642270  61.8760570  67.4791690  10.5783290  62.0305650  68.3282110
   9.2293270  62.0015790  67.6417470  10.6364440  59.2156730  69.4830840
  11.2185210  58.4609050  69.3951320  10.8126210  59.7464170  68.7062320
   4.5197950  52.9326720  64.8275180   4.0715250  52.9550980  63.9820730
   3.8863150  52.5345740  65.4245480   4.9257500  61.8281050  65.4487620
   5.3445610  62.6713780  65.2763860   4.0066130  61.9653090  65.2194400
   7.2621400  59.5597230  66.8325460   7.3817610  58.9638370  67.5720300
   8.1215400  59.5966920  66.4126760   9.6009300  60.1134420  65.4087970
   9.0744520  60.6377040  64.8053110   9.9440640  60.7461810  66.0397700
   1.9995690  57.5027790  51.8537680   1.7984750  56.6395150  52.2151020
   1.8287740  57.4161150  50.9159280   2.7764920  68.1334060  66.5645350
   2.2386010  68.8580120  66.2454050   3.0298880  67.6564400  65.7742690
   4.0290170  56.1018580  68.0901280   4.6189860  55.7934430  68.7779100
   3.2110410  55.6298330  68.2461180   8.8483600  55.7184390  68.3234300
   8.1599120  55.0565930  68.2584290   9.5689620  55.2722660  68.7682760
   9.4784000  52.3136020  54.3824560   9.7586290  51.4703920  54.7383980
   8.7049730  52.5459130  54.8963310   5.6327130  69.3685270  66.8232000
   5.5585830  70.2720410  67.1304370   4.7305970  69.0497170  66.7954070
   4.0163420  53.5463030  52.8271760   3.6685420  52.8687020  52.2474210
   4.2176190  53.0852540  53.6415150   6.1812460  68.5343780  54.4458360
   7.0763250  68.8728750  54.4677120   6.2130090  67.8123190  53.8182640
  13.1606810  67.0647450  67.1524560  12.5608800  67.1240010  66.4088480
  13.2900710  66.1252430  67.2821410  14.4008260  64.8065270  52.4894270
  13.5701220  64.8741920  52.9601500  14.5780090  65.6969390  52.1861130
  13.8564720  61.5512750  54.9928470  14.6183630  62.1209400  55.0988160
  13.8719090  60.9839950  55.7636780  14.8624690  62.4062850  59.8370400
  15.2333520  61.6230170  59.4306370  15.5026620  63.0951950  59.6587700
  11.8458450  63.7899430  65.2500720  11.0318290  64.2196590  65.5126510
  12.2532650  64.4017840  64.6369770  13.9083890  61.8447120  52.1500990
  14.1832730  62.7526000  52.0220210  13.7194630  61.7809650  53.0862980
  10.3059500  54.8691970  53.4454620  10.7244380  54.6822950  52.6051280
   9.9995560  54.0171020  53.7557550  13.8049230  59.7816110  57.1430420
  13.4292830  59.0144040  56.7111710  13.0752350  60.1638810  57.6305350
  13.1948850  58.9287630  66.7769940  12.9634940  58.7000380  65.8767890
  13.4553400  59.8487180  66.7314830  11.6336920  54.1544060  69.5549640
  12.5107100  54.1627460  69.9383640  11.6457760  53.4174900  68.9441990
  13.0800190  58.0073600  60.4437660  13.6037670  57.5136250  59.8127830
  13.6659610  58.1423960  61.1885230  13.2589910  58.0913470  63.9657210
  12.3092620  58.0577010  64.0802200  13.4402920  59.0013580  63.7306980
  12.5700160  57.2646950  56.3830070  13.0659280  57.0317820  57.1678950
  12.3716230  56.4258790  55.9667710  13.9987320  55.9007900  58.9167750
  13.8886600  55.7463940  59.8550020  14.7594910  55.3728840  58.6743160
  12.3453040  51.8402030  65.3750750  12.9825260  52.4536170  65.7409940
  12.4927930  51.8762690  64.4299980  14.8877590  53.7315820  52.1573890
  15.8126900  53.5997000  51.9492180  14.8653380  53.8108640  53.1110340
  14.9616080  54.5026480  54.7830600  14.1667580  54.4371600  55.3123510
  15.1659360  55.4377120  54.7715950  11.9034500  68.5418030  58.7768990
  12.4993570  68.2202600  58.1003410  12.1612650  68.0689850  59.5682260
   3.5103100  66.5295530  64.5269340   3.2694460  66.7970090  63.6399860
   4.4505740  66.7001260  64.5820200   5.7157520  52.9928220  68.2825850
   5.6546410  53.5850050  69.0321260   6.6557900  52.8854180  68.1376110
   8.3532080  52.6498280  67.9218140   8.9672490  52.9677570  67.2599220
   8.8981640  52.1646870  68.5414000  14.7707260  68.5489910  65.3279980
  14.2765540  68.9458780  64.6107110  14.1620550  67.9239120  65.7217260
   9.0940120  51.2130420  64.2487430   8.2199960  51.5465530  64.0460360
   8.9850870  50.7403600  65.0739300  10.0012100  53.4201290  65.6329150
   9.6725460  52.6053050  65.2530880  10.9494400  53.3771100  65.5094840
  12.4546710  69.1913330  62.6066720  11.9949680  69.9429140  62.2324740
  11.8259170  68.4719800  62.5481520   2.8842430  67.5001570  61.7814850
   3.4007450  66.8888930  61.2563110   3.5339810  68.0030350  62.2725860
   5.6237930  68.3910060  62.6083830   5.9115740  68.1364360  61.7316840
   6.1361150  67.8387420  63.1989400   6.8414940  52.1300260  63.1880340
   6.0586730  52.6045760  63.4677100   6.5477870  51.2255090  63.0793520
  11.3936010  52.8323360  61.2329430  11.8344100  52.7768460  60.3851030
  11.1243600  53.7481370  61.3039610  13.2574580  52.4638600  59.2438250
  13.1962980  51.5199820  59.0969270  14.0366610  52.5718690  59.7891710
   4.7269160  54.5487010  58.6996370   3.9143670  54.1743900  58.3592250
   5.2310800  53.7932090  59.0017560   9.2294140  51.2129460  59.9379440
   9.8323510  51.7849670  60.4127960   8.4887130  51.7768900  59.7153340
  12.3728740  51.6151020  55.2119720  12.5679370  52.5134470  55.4787150
  11.5858610  51.3838100  55.7052670   2.7518340  52.6986930  57.3041420
   2.1221080  51.9974240  57.4711550   2.2123480  53.4591060  57.0874580
   5.6910290  69.3126160  69.9752030   6.6177600  69.0770430  70.0187990
   5.6760720  70.1398160  69.4938060  13.9255350  68.8551730  56.9726280
  14.1007540  68.1689470  56.3287200  13.2276920  69.3798780  56.5802950
   2.8773900  51.9770910  69.7393910   2.5958170  52.4804510  68.9754730
   3.2593600  51.1792660  69.3736040   1.7683000  69.2446570  54.5261590
   2.5001820  68.9605850  53.9785480   2.0276670  69.0059850  55.4160970
   9.4789360  51.3924490  70.3174380   9.3654810  51.7119100  71.2125900
  10.2959100  51.7937000  70.0211660  12.2587850  68.5396020  69.7993070
  13.0513170  68.0445250  69.5919030  12.5521000  69.2186160  70.4068680
   8.3847510  59.4116960  40.6809120   8.3041560  58.4971570  40.4100830
   7.9711930  59.9084030  39.9748830   6.5165550  61.1895980  42.5618390
   5.7407650  60.7096420  42.8516960   7.1678480  60.5101630  42.3874550
  10.5372980  65.5956170  41.3417520  10.0754510  64.8243410  41.6704690
  11.3498530  65.6222240  41.8469970   6.7636290  67.8814180  40.9621510
   6.1447730  68.3371680  40.3915950   7.6188070  68.0365640  40.5611210
   5.9574540  63.8653170  42.5688550   5.8882820  62.9243110  42.4077680
   6.7194400  63.9554580  43.1411120   6.9879710  56.6723550  42.7957480
   7.3644530  55.7995430  42.6831150   6.8899220  57.0082250  41.9047920
  10.7703830  54.1673990  39.7285820  11.5913450  53.6770560  39.7711300
  10.8037910  54.7571650  40.4817660   2.9592450  58.0135550  42.5900100
   3.4670670  58.5116520  43.2305120   3.4905690  57.2370750  42.4139460
  15.0603380  56.1840740  46.2929450  14.3555550  56.5722450  45.7744560
  15.3261300  56.8791030  46.8950380   7.6299640  62.7653420  38.3553420
   7.0116910  63.2302870  37.7916140   8.1422890  63.4580900  38.7722930
   2.4931400  62.2929290  45.0337020   2.1600780  62.9198210  45.6758090
   2.6698080  62.8191170  44.2538690  11.0065310  56.1074370  42.5013360
  10.3020880  56.3959260  43.0816470  11.3677470  56.9174480  42.1412920
  12.6228090  65.7249500  44.7640840  11.9391610  66.3948610  44.7557510
  13.1622380  65.9230150  43.9985700  14.0752230  55.5529160  42.8922570
  13.1277140  55.5868140  43.0238000  14.4002220  56.3668110  43.2771930
   4.6071770  51.8526340  41.1878560   4.9146750  51.2973230  40.4714060
   3.6772470  51.9870800  41.0051550  10.1586830  67.5693630  43.4786020
  10.1713990  67.1655920  42.6108280   9.6062050  68.3440920  43.3747450
  11.4532250  64.2909850  38.5676190  11.3428580  63.3484180  38.6925610
  11.4500500  64.6525490  39.4538950   9.5572270  62.4723470  44.8068630
   9.9741060  62.2583580  43.9722090  10.2812090  62.7296260  45.3777250
   6.9952530  59.9175170  37.9238680   6.0681810  59.8512550  38.1527150
   7.1477350  60.8555300  37.8093920   6.9821610  56.1892170  34.9205840
   6.0425280  56.3506130  35.0058300   7.3004870  56.9077850  34.3741830
  13.5034370  60.8710690  44.8984870  12.6753000  60.9403780  44.4235000
  14.0984850  61.4565000  44.4300700  11.0249820  61.4795470  38.4273930
  10.4062240  61.1415020  37.7800230  11.0074270  60.8355230  39.1353120
  10.4676380  57.6580010  45.8439740  10.0547560  58.4833720  46.0979730
   9.7352330  57.0725050  45.6516100   2.6009170  60.4439910  40.7058410
   2.1966170  59.7317160  40.2104310   2.6872290  60.0993150  41.5946450
   3.0690870  64.1307470  42.8697620   2.7719160  63.5252940  42.1905400
   4.0190690  64.1684780  42.7586980  11.1576480  67.7039340  46.5320720
  10.6807040  68.5111530  46.3393330  10.4738270  67.0517670  46.6846930
   9.2014520  60.7182280  35.4346680   9.6407800  59.8804710  35.2884500
   9.9142940  61.3511680  35.5210820   7.3109900  65.6578350  39.4027920
   7.7505810  66.4002680  38.9883310   7.2496790  65.9004920  40.3266880
   2.7860870  66.6824180  50.3047940   2.7576300  67.0867130  49.4376370
   2.6225840  65.7534540  50.1419540  12.7831660  51.9725090  33.7487720
  12.4704320  52.0651920  34.6486790  13.5444130  52.5506120  33.6985150
  14.7375690  67.4651280  51.6012110  15.2135410  67.9434170  52.2801190
  15.3582850  67.3968770  50.8757610  14.1408940  64.6564130  48.7612120
  14.2672000  64.4176010  47.8429300  14.1830320  63.8248670  49.2334200
   8.0025680  68.3592130  47.3306930   8.5170350  68.2700140  48.1329360
   7.1594760  68.7051830  47.6234840   9.9780080  68.6447470  36.7590930
   9.8181220  68.3550410  37.6572760   9.8126790  67.8687600  36.2236160
   2.4568460  68.4246000  38.5362550   2.2810940  67.5081540  38.3230350
   1.6024200  68.7833290  38.7760350   9.6806210  66.1535030  35.3188930
   8.9871370  66.1512320  34.6591210  10.4229070  65.7294350  34.8883100
   9.2456140  67.7797740  39.3937420   9.7013090  66.9987120  39.7076040
   9.5848660  68.4904560  39.9378600  13.9932950  56.7096590  49.7261860
  13.3777220  57.2176260  49.1977320  13.6729370  55.8094920  49.6687800
   6.0547270  55.5488480  47.1924050   5.5926640  55.7571500  48.0043990
   5.6525380  54.7347830  46.8894720  11.0551780  56.7697430  48.3220710
  10.2045370  56.4703180  48.6429780  10.8953570  57.0139440  47.4104530
   8.1501490  58.2699180  50.4219500   8.4754900  57.4362930  50.0821730
   8.9381820  58.7927700  50.5697830   4.8836280  52.3030660  36.4694560
   4.2590460  52.2990530  37.1947870   4.7966400  51.4361620  36.0730530
   3.8053360  53.2267290  43.4478330   4.1025690  54.1330120  43.3670350
   4.3538920  52.7386070  42.8337900   8.7889440  57.8116900  37.9160630
   8.1898330  58.5352700  37.7324250   9.3369050  57.7493680  37.1337080
   3.9990890  58.7039110  49.9830250   3.9034490  57.7633840  49.8330650
   4.8422870  58.9254180  49.5878320   7.3954310  56.4480440  39.9463910
   7.7883880  56.7652640  39.1332600   7.7571160  55.5692320  40.0608430
   5.7046480  55.1987750  51.2060770   5.0144800  55.0059950  51.8406860
   6.4478780  55.4822390  51.7385070   7.9809450  59.0386190  44.0414690
   7.2490570  59.5473000  44.3904790   7.5833790  58.2216170  43.7403470
   4.4186840  55.7140390  42.4467180   4.4222900  55.2730340  41.5971720
   5.3137960  56.0357720  42.5539000   4.4806990  56.7152470  35.4373940
   4.6019810  56.6738950  36.3859760   4.0955500  57.5776620  35.2820670
   8.4435360  54.4919870  43.4537630   8.4608100  54.9428520  44.2979480
   8.1950940  53.5925510  43.6671070   3.4928490  59.0253610  34.8357240
   2.9245390  58.5771860  34.2093150   4.2017490  59.3846390  34.3022390
  11.8706110  51.9052050  49.2924010  12.1951880  51.1741710  49.8181990
  11.9062620  51.5865690  48.3905000   4.7194810  59.7742170  44.1932590
   5.0864940  59.3000740  44.9393930   4.5299870  60.6483740  44.5340930
   2.5094180  58.8150810  46.5116800   2.2051250  59.6942790  46.7367160
   3.4640640  58.8750600  46.5474240  11.7963950  62.0177160  42.9010040
  12.5163070  62.5132450  42.5106150  11.5945770  61.3395050  42.2563910
   7.2573890  53.4115120  37.0439430   6.4438500  52.9128290  36.9684740
   7.0635840  54.2513370  36.6275780   7.1782750  62.0886220  48.7879040
   7.1120060  61.1681890  48.5336630   6.5487890  62.1861660  49.5023680
   9.9722280  57.7834770  35.3401590  10.8601900  58.0952000  35.1652930
   9.9427370  56.9107020  34.9482170   5.9682870  63.9558460  36.0189760
   6.3098570  64.7000690  35.5233080   5.1395580  64.2689580  36.3814590
   7.1099480  64.9106790  48.5382840   7.1244020  63.9787750  48.3201750
   6.4024580  64.9966550  49.1772610  12.2436550  59.0946610  34.8081450
  12.1600270  59.5260830  33.9577890  12.9630740  59.5544960  35.2408270
  13.3210690  61.5514130  47.8851420  12.5958880  62.1442910  47.6880810
  13.8486150  61.5437670  47.0864790  13.2723800  65.9488870  37.5363580
  12.6299960  65.2944490  37.8107300  12.8854460  66.3543960  36.7604250
   8.8510280  63.2774300  41.3835270   9.2034100  62.6802430  40.7236640
   7.9672610  62.9518530  41.5543520   4.9373560  64.0371990  38.7905680
   5.6244690  64.5841200  39.1713270   4.1505980  64.5812720  38.8255290
   4.2400770  61.0418020  38.4031040   4.6963550  61.8523270  38.6291230
   3.8888980  60.7241160  39.2349530   6.5433380  66.5524360  45.6323340
   7.1875600  66.7583740  46.3096760   6.9062820  65.7912760  45.1794190
   7.8165460  64.5556710  44.3500790   8.4587690  63.8549870  44.4632960
   8.3414810  65.3355150  44.1697680  11.6621180  64.8405330  34.0739930
  11.4358760  64.1235770  34.6664570  11.2717380  64.5917770  33.2361680
   9.5903080  65.3551610  47.5536850   9.9259320  65.9418300  48.2314770
   8.6703420  65.2244320  47.7834640  11.2437430  62.7577270  35.7354090
  10.9559130  63.2189960  36.5231970  12.0389600  62.2975040  36.0038310
   5.4191660  65.4042940  50.7224910   5.0988530  64.6852180  51.2670600
   4.7450020  66.0798010  50.7960970   3.4605830  66.2503390  35.6658060
   3.4515930  66.9833080  35.0502570   2.5404190  66.0034970  35.7585020
   8.6345260  55.6369100  46.0861710   9.0026080  54.8164310  46.4141280
   7.7743460  55.6970990  46.5017360  12.0007290  54.5926040  36.8949270
  11.3720450  54.6971710  36.1807500  11.5059210  54.8122820  37.6843150
   6.4465430  66.3131630  34.3283250   6.5477410  66.1095620  33.3985230
   5.5467170  66.0589910  34.5331030   3.9691320  56.8711990  38.3107150
   3.2607470  57.3398330  38.7520760   4.2535800  56.2134000  38.9452340
   5.5947250  58.2908690  46.3099680   6.0932500  58.7654510  46.9751530
   5.7370200  57.3672210  46.5169710   8.0006750  53.5962650  39.7502940
   7.8774530  53.6148780  38.8012450   8.9491310  53.6441590  39.8701340
   5.0883540  68.8317950  39.0230920   5.3425040  68.7939340  38.1010290
   4.1396020  68.7051280  39.0159170   2.1726340  55.1797070  35.6857860
   3.0216870  55.6167220  35.6198050   1.8057610  55.4917330  36.5129920
  12.8014110  54.5076650  47.1528070  12.2987710  55.2482050  47.4921880
  13.6170770  54.8960650  46.8364860  11.0936120  59.7509830  40.5989430
  10.1526260  59.7660060  40.7737120  11.4080190  58.9645790  41.0449730
  13.0961700  66.9218680  42.2743690  13.2209120  67.7449850  42.7467500
  13.9627260  66.7109410  41.9267840   3.6781540  68.1880200  33.7686390
   4.4710150  68.4769030  33.3168180   3.1585890  67.7572370  33.0898870
   8.4102140  64.3075830  51.0821810   7.8040300  64.3307430  50.3417560
   8.1056250  63.5758870  51.6189060   9.8402510  68.0356120  49.6931220
  10.7924260  67.9514140  49.6431460   9.6930730  68.6997830  50.3665010
  12.7311710  67.4150330  35.1923130  12.4453220  67.0015470  34.3777310
  12.5331260  68.3438040  35.0723650   4.1958940  63.4083610  33.6328740
   4.0909580  62.7935960  34.3590120   4.0283160  62.8849500  32.8491750
   4.3473260  62.0940410  49.6117970   3.5818930  62.6625410  49.5272640
   4.5289220  61.8016620  48.7186200   7.4361670  62.4703640  34.2370730
   6.8871770  62.9172940  34.8813470   8.0580930  61.9652890  34.7608400
  11.4896610  63.8245740  50.1692990  12.2306080  64.1621500  49.6660450
  10.7269290  63.9937800  49.6162760   3.1036790  61.4294560  36.1336030
   3.5253210  61.2634430  36.9767420   3.2287630  60.6194790  35.6391170
   5.6164430  60.4532170  33.3813130   6.1370090  59.7381190  33.0154280
   6.2632830  61.0918040  33.6813640  10.1642270  61.8760570  48.7048200
  10.5783290  62.0305650  49.5538620   9.2293270  62.0015790  48.8673980
  10.6364440  59.2156730  50.7087350  11.2185210  58.4609050  50.6207830
  10.8126210  59.7464170  49.9318830   4.5197950  52.9326720  46.0531690
   4.0715250  52.9550980  45.2077240   3.8863150  52.5345740  46.6501990
   4.9257500  61.8281050  46.6744130   5.3445610  62.6713780  46.5020370
   4.0066130  61.9653090  46.4450910   7.2621400  59.5597230  48.0581970
   7.3817610  58.9638370  48.7976810   8.1215400  59.5966920  47.6383270
   9.6009300  60.1134420  46.6344480   9.0744520  60.6377040  46.0309620
   9.9440640  60.7461810  47.2654210   1.9995690  57.5027790  33.0794190
   1.7984750  56.6395150  33.4407530   1.8287740  57.4161150  32.1415790
   2.7764920  68.1334060  47.7901860   2.2386010  68.8580120  47.4710560
   3.0298880  67.6564400  46.9999200   4.0290170  56.1018580  49.3157790
   4.6189860  55.7934430  50.0035610   3.2110410  55.6298330  49.4717690
   8.8483600  55.7184390  49.5490810   8.1599120  55.0565930  49.4840800
   9.5689620  55.2722660  49.9939270   9.4784000  52.3136020  35.6081070
   9.7586290  51.4703920  35.9640490   8.7049730  52.5459130  36.1219820
   5.6327130  69.3685270  48.0488510   5.5585830  70.2720410  48.3560880
   4.7305970  69.0497170  48.0210580   4.0163420  53.5463030  34.0528270
   3.6685420  52.8687020  33.4730720   4.2176190  53.0852540  34.8671660
   6.1812460  68.5343780  35.6714870   7.0763250  68.8728750  35.6933630
   6.2130090  67.8123190  35.0439150  13.1606810  67.0647450  48.3781070
  12.5608800  67.1240010  47.6344990  13.2900710  66.1252430  48.5077920
  14.4008260  64.8065270  33.7150780  13.5701220  64.8741920  34.1858010
  14.5780090  65.6969390  33.4117640  13.8564720  61.5512750  36.2184980
  14.6183630  62.1209400  36.3244670  13.8719090  60.9839950  36.9893290
  14.8624690  62.4062850  41.0626910  15.2333520  61.6230170  40.6562880
  15.5026620  63.0951950  40.8844210  11.8458450  63.7899430  46.4757230
  11.0318290  64.2196590  46.7383020  12.2532650  64.4017840  45.8626280
  13.9083890  61.8447120  33.3757500  14.1832730  62.7526000  33.2476720
  13.7194630  61.7809650  34.3119490  10.3059500  54.8691970  34.6711130
  10.7244380  54.6822950  33.8307790   9.9995560  54.0171020  34.9814060
  13.8049230  59.7816110  38.3686930  13.4292830  59.0144040  37.9368220
  13.0752350  60.1638810  38.8561860  13.1948850  58.9287630  48.0026450
  12.9634940  58.7000380  47.1024400  13.4553400  59.8487180  47.9571340
  11.6336920  54.1544060  50.7806150  12.5107100  54.1627460  51.1640150
  11.6457760  53.4174900  50.1698500  13.0800190  58.0073600  41.6694170
  13.6037670  57.5136250  41.0384340  13.6659610  58.1423960  42.4141740
  13.2589910  58.0913470  45.1913720  12.3092620  58.0577010  45.3058710
  13.4402920  59.0013580  44.9563490  12.5700160  57.2646950  37.6086580
  13.0659280  57.0317820  38.3935460  12.3716230  56.4258790  37.1924220
  13.9987320  55.9007900  40.1424260  13.8886600  55.7463940  41.0806530
  14.7594910  55.3728840  39.8999670  12.3453040  51.8402030  46.6007260
  12.9825260  52.4536170  46.9666450  12.4927930  51.8762690  45.6556490
  14.8877590  53.7315820  33.3830400  15.8126900  53.5997000  33.1748690
  14.8653380  53.8108640  34.3366850  14.9616080  54.5026480  36.0087110
  14.1667580  54.4371600  36.5380020  15.1659360  55.4377120  35.9972460
  11.9034500  68.5418030  40.0025500  12.4993570  68.2202600  39.3259920
  12.1612650  68.0689850  40.7938770   3.5103100  66.5295530  45.7525850
   3.2694460  66.7970090  44.8656370   4.4505740  66.7001260  45.8076710
   5.7157520  52.9928220  49.5082360   5.6546410  53.5850050  50.2577770
   6.6557900  52.8854180  49.3632620   8.3532080  52.6498280  49.1474650
   8.9672490  52.9677570  48.4855730   8.8981640  52.1646870  49.7670510
  14.7707260  68.5489910  46.5536490  14.2765540  68.9458780  45.8363620
  14.1620550  67.9239120  46.9473770   9.0940120  51.2130420  45.4743940
   8.2199960  51.5465530  45.2716870   8.9850870  50.7403600  46.2995810
  10.0012100  53.4201290  46.8585660   9.6725460  52.6053050  46.4787390
  10.9494400  53.3771100  46.7351350  12.4546710  69.1913330  43.8323230
  11.9949680  69.9429140  43.4581250  11.8259170  68.4719800  43.7738030
   2.8842430  67.5001570  43.0071360   3.4007450  66.8888930  42.4819620
   3.5339810  68.0030350  43.4982370   5.6237930  68.3910060  43.8340340
   5.9115740  68.1364360  42.9573350   6.1361150  67.8387420  44.4245910
   6.8414940  52.1300260  44.4136850   6.0586730  52.6045760  44.6933610
   6.5477870  51.2255090  44.3050030  11.3936010  52.8323360  42.4585940
  11.8344100  52.7768460  41.6107540  11.1243600  53.7481370  42.5296120
  13.2574580  52.4638600  40.4694760  13.1962980  51.5199820  40.3225780
  14.0366610  52.5718690  41.0148220   4.7269160  54.5487010  39.9252880
   3.9143670  54.1743900  39.5848760   5.2310800  53.7932090  40.2274070
   9.2294140  51.2129460  41.1635950   9.8323510  51.7849670  41.6384470
   8.4887130  51.7768900  40.9409850  12.3728740  51.6151020  36.4376230
  12.5679370  52.5134470  36.7043660  11.5858610  51.3838100  36.9309180
   2.7518340  52.6986930  38.5297930   2.1221080  51.9974240  38.6968060
   2.2123480  53.4591060  38.3131090   5.6910290  69.3126160  51.2008540
   6.6177600  69.0770430  51.2444500   5.6760720  70.1398160  50.7194570
  13.9255350  68.8551730  38.1982790  14.1007540  68.1689470  37.5543710
  13.2276920  69.3798780  37.8059460   2.8773900  51.9770910  50.9650420
   2.5958170  52.4804510  50.2011240   3.2593600  51.1792660  50.5992550
   1.7683000  69.2446570  35.7518100   2.5001820  68.9605850  35.2041990
   2.0276670  69.0059850  36.6417480   9.4789360  51.3924490  51.5430890
   9.3654810  51.7119100  52.4382410  10.2959100  51.7937000  51.2468170
  12.2587850  68.5396020  51.0249580  13.0513170  68.0445250  50.8175540
  12.5521000  69.2186160  51.6325190   8.3847510  59.4116960  21.9065630
   8.3041560  58.4971570  21.6357340   7.9711930  59.9084030  21.2005340
   6.5165550  61.1895980  23.7874900   5.7407650  60.7096420  24.0773470
   7.1678480  60.5101630  23.6131060  10.5372980  65.5956170  22.5674030
  10.0754510  64.8243410  22.8961200  11.3498530  65.6222240  23.0726480
   6.7636290  67.8814180  22.1878020   6.1447730  68.3371680  21.6172460
   7.6188070  68.0365640  21.7867720   5.9574540  63.8653170  23.7945060
   5.8882820  62.9243110  23.6334190   6.7194400  63.9554580  24.3667630
   6.9879710  56.6723550  24.0213990   7.3644530  55.7995430  23.9087660
   6.8899220  57.0082250  23.1304430  10.7703830  54.1673990  20.9542330
  11.5913450  53.6770560  20.9967810  10.8037910  54.7571650  21.7074170
   2.9592450  58.0135550  23.8156610   3.4670670  58.5116520  24.4561630
   3.4905690  57.2370750  23.6395970  15.0603380  56.1840740  27.5185960
  14.3555550  56.5722450  27.0001070  15.3261300  56.8791030  28.1206890
   7.6299640  62.7653420  19.5809930   7.0116910  63.2302870  19.0172650
   8.1422890  63.4580900  19.9979440   2.4931400  62.2929290  26.2593530
   2.1600780  62.9198210  26.9014600   2.6698080  62.8191170  25.4795200
  11.0065310  56.1074370  23.7269870  10.3020880  56.3959260  24.3072980
  11.3677470  56.9174480  23.3669430  12.6228090  65.7249500  25.9897350
  11.9391610  66.3948610  25.9814020  13.1622380  65.9230150  25.2242210
  14.0752230  55.5529160  24.1179080  13.1277140  55.5868140  24.2494510
  14.4002220  56.3668110  24.5028440   4.6071770  51.8526340  22.4135070
   4.9146750  51.2973230  21.6970570   3.6772470  51.9870800  22.2308060
  10.1586830  67.5693630  24.7042530  10.1713990  67.1655920  23.8364790
   9.6062050  68.3440920  24.6003960  11.4532250  64.2909850  19.7932700
  11.3428580  63.3484180  19.9182120  11.4500500  64.6525490  20.6795460
   9.5572270  62.4723470  26.0325140   9.9741060  62.2583580  25.1978600
  10.2812090  62.7296260  26.6033760   6.9952530  59.9175170  19.1495190
   6.0681810  59.8512550  19.3783660   7.1477350  60.8555300  19.0350430
   6.9821610  56.1892170  16.1462350   6.0425280  56.3506130  16.2314810
   7.3004870  56.9077850  15.5998340  13.5034370  60.8710690  26.1241380
  12.6753000  60.9403780  25.6491510  14.0984850  61.4565000  25.6557210
  11.0249820  61.4795470  19.6530440  10.4062240  61.1415020  19.0056740
  11.0074270  60.8355230  20.3609630  10.4676380  57.6580010  27.0696250
  10.0547560  58.4833720  27.3236240   9.7352330  57.0725050  26.8772610
   2.6009170  60.4439910  21.9314920   2.1966170  59.7317160  21.4360820
   2.6872290  60.0993150  22.8202960   3.0690870  64.1307470  24.0954130
   2.7719160  63.5252940  23.4161910   4.0190690  64.1684780  23.9843490
  11.1576480  67.7039340  27.7577230  10.6807040  68.5111530  27.5649840
  10.4738270  67.0517670  27.9103440   9.2014520  60.7182280  16.6603190
   9.6407800  59.8804710  16.5141010   9.9142940  61.3511680  16.7467330
   7.3109900  65.6578350  20.6284430   7.7505810  66.4002680  20.2139820
   7.2496790  65.9004920  21.5523390   2.7860870  66.6824180  31.5304450
   2.7576300  67.0867130  30.6632880   2.6225840  65.7534540  31.3676050
  12.7831660  51.9725090  14.9744230  12.4704320  52.0651920  15.8743300
  13.5444130  52.5506120  14.9241660  14.7375690  67.4651280  32.8268620
  15.2135410  67.9434170  33.5057700  15.3582850  67.3968770  32.1014120
  14.1408940  64.6564130  29.9868630  14.2672000  64.4176010  29.0685810
  14.1830320  63.8248670  30.4590710   8.0025680  68.3592130  28.5563440
   8.5170350  68.2700140  29.3585870   7.1594760  68.7051830  28.8491350
   9.9780080  68.6447470  17.9847440   9.8181220  68.3550410  18.8829270
   9.8126790  67.8687600  17.4492670   2.4568460  68.4246000  19.7619060
   2.2810940  67.5081540  19.5486860   1.6024200  68.7833290  20.0016860
   9.6806210  66.1535030  16.5445440   8.9871370  66.1512320  15.8847720
  10.4229070  65.7294350  16.1139610   9.2456140  67.7797740  20.6193930
   9.7013090  66.9987120  20.9332550   9.5848660  68.4904560  21.1635110
  13.9932950  56.7096590  30.9518370  13.3777220  57.2176260  30.4233830
  13.6729370  55.8094920  30.8944310   6.0547270  55.5488480  28.4180560
   5.5926640  55.7571500  29.2300500   5.6525380  54.7347830  28.1151230
  11.0551780  56.7697430  29.5477220  10.2045370  56.4703180  29.8686290
  10.8953570  57.0139440  28.6361040   8.1501490  58.2699180  31.6476010
   8.4754900  57.4362930  31.3078240   8.9381820  58.7927700  31.7954340
   4.8836280  52.3030660  17.6951070   4.2590460  52.2990530  18.4204380
   4.7966400  51.4361620  17.2987040   3.8053360  53.2267290  24.6734840
   4.1025690  54.1330120  24.5926860   4.3538920  52.7386070  24.0594410
   8.7889440  57.8116900  19.1417140   8.1898330  58.5352700  18.9580760
   9.3369050  57.7493680  18.3593590   3.9990890  58.7039110  31.2086760
   3.9034490  57.7633840  31.0587160   4.8422870  58.9254180  30.8134830
   7.3954310  56.4480440  21.1720420   7.7883880  56.7652640  20.3589110
   7.7571160  55.5692320  21.2864940   5.7046480  55.1987750  32.4317280
   5.0144800  55.0059950  33.0663370   6.4478780  55.4822390  32.9641580
   7.9809450  59.0386190  25.2671200   7.2490570  59.5473000  25.6161300
   7.5833790  58.2216170  24.9659980   4.4186840  55.7140390  23.6723690
   4.4222900  55.2730340  22.8228230   5.3137960  56.0357720  23.7795510
   4.4806990  56.7152470  16.6630450   4.6019810  56.6738950  17.6116270
   4.0955500  57.5776620  16.5077180   8.4435360  54.4919870  24.6794140
   8.4608100  54.9428520  25.5235990   8.1950940  53.5925510  24.8927580
   3.4928490  59.0253610  16.0613750   2.9245390  58.5771860  15.4349660
   4.2017490  59.3846390  15.5278900  11.8706110  51.9052050  30.5180520
  12.1951880  51.1741710  31.0438500  11.9062620  51.5865690  29.6161510
   4.7194810  59.7742170  25.4189100   5.0864940  59.3000740  26.1650440
   4.5299870  60.6483740  25.7597440   2.5094180  58.8150810  27.7373310
   2.2051250  59.6942790  27.9623670   3.4640640  58.8750600  27.7730750
  11.7963950  62.0177160  24.1266550  12.5163070  62.5132450  23.7362660
  11.5945770  61.3395050  23.4820420   7.2573890  53.4115120  18.2695940
   6.4438500  52.9128290  18.1941250   7.0635840  54.2513370  17.8532290
   7.1782750  62.0886220  30.0135550   7.1120060  61.1681890  29.7593140
   6.5487890  62.1861660  30.7280190   9.9722280  57.7834770  16.5658100
  10.8601900  58.0952000  16.3909440   9.9427370  56.9107020  16.1738680
   5.9682870  63.9558460  17.2446270   6.3098570  64.7000690  16.7489590
   5.1395580  64.2689580  17.6071100   7.1099480  64.9106790  29.7639350
   7.1244020  63.9787750  29.5458260   6.4024580  64.9966550  30.4029120
  12.2436550  59.0946610  16.0337960  12.1600270  59.5260830  15.1834400
  12.9630740  59.5544960  16.4664780  13.3210690  61.5514130  29.1107930
  12.5958880  62.1442910  28.9137320  13.8486150  61.5437670  28.3121300
  13.2723800  65.9488870  18.7620090  12.6299960  65.2944490  19.0363810
  12.8854460  66.3543960  17.9860760   8.8510280  63.2774300  22.6091780
   9.2034100  62.6802430  21.9493150   7.9672610  62.9518530  22.7800030
   4.9373560  64.0371990  20.0162190   5.6244690  64.5841200  20.3969780
   4.1505980  64.5812720  20.0511800   4.2400770  61.0418020  19.6287550
   4.6963550  61.8523270  19.8547740   3.8888980  60.7241160  20.4606040
   6.5433380  66.5524360  26.8579850   7.1875600  66.7583740  27.5353270
   6.9062820  65.7912760  26.4050700   7.8165460  64.5556710  25.5757300
   8.4587690  63.8549870  25.6889470   8.3414810  65.3355150  25.3954190
  11.6621180  64.8405330  15.2996440  11.4358760  64.1235770  15.8921080
  11.2717380  64.5917770  14.4618190   9.5903080  65.3551610  28.7793360
   9.9259320  65.9418300  29.4571280   8.6703420  65.2244320  29.0091150
  11.2437430  62.7577270  16.9610600  10.9559130  63.2189960  17.7488480
  12.0389600  62.2975040  17.2294820   5.4191660  65.4042940  31.9481420
   5.0988530  64.6852180  32.4927110   4.7450020  66.0798010  32.0217480
   3.4605830  66.2503390  16.8914570   3.4515930  66.9833080  16.2759080
   2.5404190  66.0034970  16.9841530   8.6345260  55.6369100  27.3118220
   9.0026080  54.8164310  27.6397790   7.7743460  55.6970990  27.7273870
  12.0007290  54.5926040  18.1205780  11.3720450  54.6971710  17.4064010
  11.5059210  54.8122820  18.9099660   6.4465430  66.3131630  15.5539760
   6.5477410  66.1095620  14.6241740   5.5467170  66.0589910  15.7587540
   3.9691320  56.8711990  19.5363660   3.2607470  57.3398330  19.9777270
   4.2535800  56.2134000  20.1708850   5.5947250  58.2908690  27.5356190
   6.0932500  58.7654510  28.2008040   5.7370200  57.3672210  27.7426220
   8.0006750  53.5962650  20.9759450   7.8774530  53.6148780  20.0268960
   8.9491310  53.6441590  21.0957850   5.0883540  68.8317950  20.2487430
   5.3425040  68.7939340  19.3266800   4.1396020  68.7051280  20.2415680
   2.1726340  55.1797070  16.9114370   3.0216870  55.6167220  16.8454560
   1.8057610  55.4917330  17.7386430  12.8014110  54.5076650  28.3784580
  12.2987710  55.2482050  28.7178390  13.6170770  54.8960650  28.0621370
  11.0936120  59.7509830  21.8245940  10.1526260  59.7660060  21.9993630
  11.4080190  58.9645790  22.2706240  13.0961700  66.9218680  23.5000200
  13.2209120  67.7449850  23.9724010  13.9627260  66.7109410  23.1524350
   3.6781540  68.1880200  14.9942900   4.4710150  68.4769030  14.5424690
   3.1585890  67.7572370  14.3155380   8.4102140  64.3075830  32.3078320
   7.8040300  64.3307430  31.5674070   8.1056250  63.5758870  32.8445570
   9.8402510  68.0356120  30.9187730  10.7924260  67.9514140  30.8687970
   9.6930730  68.6997830  31.5921520  12.7311710  67.4150330  16.4179640
  12.4453220  67.0015470  15.6033820  12.5331260  68.3438040  16.2980160
   4.1958940  63.4083610  14.8585250   4.0909580  62.7935960  15.5846630
   4.0283160  62.8849500  14.0748260   4.3473260  62.0940410  30.8374480
   3.5818930  62.6625410  30.7529150   4.5289220  61.8016620  29.9442710
   7.4361670  62.4703640  15.4627240   6.8871770  62.9172940  16.1069980
   8.0580930  61.9652890  15.9864910  11.4896610  63.8245740  31.3949500
  12.2306080  64.1621500  30.8916960  10.7269290  63.9937800  30.8419270
   3.1036790  61.4294560  17.3592540   3.5253210  61.2634430  18.2023930
   3.2287630  60.6194790  16.8647680   5.6164430  60.4532170  14.6069640
   6.1370090  59.7381190  14.2410790   6.2632830  61.0918040  14.9070150
  10.1642270  61.8760570  29.9304710  10.5783290  62.0305650  30.7795130
   9.2293270  62.0015790  30.0930490  10.6364440  59.2156730  31.9343860
  11.2185210  58.4609050  31.8464340  10.8126210  59.7464170  31.1575340
   4.5197950  52.9326720  27.2788200   4.0715250  52.9550980  26.4333750
   3.8863150  52.5345740  27.8758500   4.9257500  61.8281050  27.9000640
   5.3445610  62.6713780  27.7276880   4.0066130  61.9653090  27.6707420
   7.2621400  59.5597230  29.2838480   7.3817610  58.9638370  30.0233320
   8.1215400  59.5966920  28.8639780   9.6009300  60.1134420  27.8600990
   9.0744520  60.6377040  27.2566130   9.9440640  60.7461810  28.4910720
   1.9995690  57.5027790  14.3050700   1.7984750  56.6395150  14.6664040
   1.8287740  57.4161150  13.3672300   2.7764920  68.1334060  29.0158370
   2.2386010  68.8580120  28.6967070   3.0298880  67.6564400  28.2255710
   4.0290170  56.1018580  30.5414300   4.6189860  55.7934430  31.2292120
   3.2110410  55.6298330  30.6974200   8.8483600  55.7184390  30.7747320
   8.1599120  55.0565930  30.7097310   9.5689620  55.2722660  31.2195780
   9.4784000  52.3136020  16.8337580   9.7586290  51.4703920  17.1897000
   8.7049730  52.5459130  17.3476330   5.6327130  69.3685270  29.2745020
   5.5585830  70.2720410  29.5817390   4.7305970  69.0497170  29.2467090
   4.0163420  53.5463030  15.2784780   3.6685420  52.8687020  14.6987230
   4.2176190  53.0852540  16.0928170   6.1812460  68.5343780  16.8971380
   7.0763250  68.8728750  16.9190140   6.2130090  67.8123190  16.2695660
  13.1606810  67.0647450  29.6037580  12.5608800  67.1240010  28.8601500
  13.2900710  66.1252430  29.7334430  14.4008260  64.8065270  14.9407290
  13.5701220  64.8741920  15.4114520  14.5780090  65.6969390  14.6374150
  13.8564720  61.5512750  17.4441490  14.6183630  62.1209400  17.5501180
  13.8719090  60.9839950  18.2149800  14.8624690  62.4062850  22.2883420
  15.2333520  61.6230170  21.8819390  15.5026620  63.0951950  22.1100720
  11.8458450  63.7899430  27.7013740  11.0318290  64.2196590  27.9639530
  12.2532650  64.4017840  27.0882790  13.9083890  61.8447120  14.6014010
  14.1832730  62.7526000  14.4733230  13.7194630  61.7809650  15.5376000
  10.3059500  54.8691970  15.8967640  10.7244380  54.6822950  15.0564300
   9.9995560  54.0171020  16.2070570  13.8049230  59.7816110  19.5943440
  13.4292830  59.0144040  19.1624730  13.0752350  60.1638810  20.0818370
  13.1948850  58.9287630  29.2282960  12.9634940  58.7000380  28.3280910
  13.4553400  59.8487180  29.1827850  11.6336920  54.1544060  32.0062660
  12.5107100  54.1627460  32.3896660  11.6457760  53.4174900  31.3955010
  13.0800190  58.0073600  22.8950680  13.6037670  57.5136250  22.2640850
  13.6659610  58.1423960  23.6398250  13.2589910  58.0913470  26.4170230
  12.3092620  58.0577010  26.5315220  13.4402920  59.0013580  26.1820000
  12.5700160  57.2646950  18.8343090  13.0659280  57.0317820  19.6191970
  12.3716230  56.4258790  18.4180730  13.9987320  55.9007900  21.3680770
  13.8886600  55.7463940  22.3063040  14.7594910  55.3728840  21.1256180
  12.3453040  51.8402030  27.8263770  12.9825260  52.4536170  28.1922960
  12.4927930  51.8762690  26.8813000  14.8877590  53.7315820  14.6086910
  15.8126900  53.5997000  14.4005200  14.8653380  53.8108640  15.5623360
  14.9616080  54.5026480  17.2343620  14.1667580  54.4371600  17.7636530
  15.1659360  55.4377120  17.2228970  11.9034500  68.5418030  21.2282010
  12.4993570  68.2202600  20.5516430  12.1612650  68.0689850  22.0195280
   3.5103100  66.5295530  26.9782360   3.2694460  66.7970090  26.0912880
   4.4505740  66.7001260  27.0333220   5.7157520  52.9928220  30.7338870
   5.6546410  53.5850050  31.4834280   6.6557900  52.8854180  30.5889130
   8.3532080  52.6498280  30.3731160   8.9672490  52.9677570  29.7112240
   8.8981640  52.1646870  30.9927020  14.7707260  68.5489910  27.7793000
  14.2765540  68.9458780  27.0620130  14.1620550  67.9239120  28.1730280
   9.0940120  51.2130420  26.7000450   8.2199960  51.5465530  26.4973380
   8.9850870  50.7403600  27.5252320  10.0012100  53.4201290  28.0842170
   9.6725460  52.6053050  27.7043900  10.9494400  53.3771100  27.9607860
  12.4546710  69.1913330  25.0579740  11.9949680  69.9429140  24.6837760
  11.8259170  68.4719800  24.9994540   2.8842430  67.5001570  24.2327870
   3.4007450  66.8888930  23.7076130   3.5339810  68.0030350  24.7238880
   5.6237930  68.3910060  25.0596850   5.9115740  68.1364360  24.1829860
   6.1361150  67.8387420  25.6502420   6.8414940  52.1300260  25.6393360
   6.0586730  52.6045760  25.9190120   6.5477870  51.2255090  25.5306540
  11.3936010  52.8323360  23.6842450  11.8344100  52.7768460  22.8364050
  11.1243600  53.7481370  23.7552630  13.2574580  52.4638600  21.6951270
  13.1962980  51.5199820  21.5482290  14.0366610  52.5718690  22.2404730
   4.7269160  54.5487010  21.1509390   3.9143670  54.1743900  20.8105270
   5.2310800  53.7932090  21.4530580   9.2294140  51.2129460  22.3892460
   9.8323510  51.7849670  22.8640980   8.4887130  51.7768900  22.1666360
  12.3728740  51.6151020  17.6632740  12.5679370  52.5134470  17.9300170
  11.5858610  51.3838100  18.1565690   2.7518340  52.6986930  19.7554440
   2.1221080  51.9974240  19.9224570   2.2123480  53.4591060  19.5387600
   5.6910290  69.3126160  32.4265050   6.6177600  69.0770430  32.4701010
   5.6760720  70.1398160  31.9451080  13.9255350  68.8551730  19.4239300
  14.1007540  68.1689470  18.7800220  13.2276920  69.3798780  19.0315970
   2.8773900  51.9770910  32.1906930   2.5958170  52.4804510  31.4267750
   3.2593600  51.1792660  31.8249060   1.7683000  69.2446570  16.9774610
   2.5001820  68.9605850  16.4298500   2.0276670  69.0059850  17.8673990
   9.4789360  51.3924490  32.7687400   9.3654810  51.7119100  33.6638920
  10.2959100  51.7937000  32.4724680  12.2587850  68.5396020  32.2506090
  13.0513170  68.0445250  32.0432050  12.5521000  69.2186160  32.8581700
   8.3847510  59.4116960   3.1322140   8.3041560  58.4971570   2.8613850
   7.9711930  59.9084030   2.4261850   6.5165550  61.1895980   5.0131410
   5.7407650  60.7096420   5.3029980   7.1678480  60.5101630   4.8387570
  10.5372980  65.5956170   3.7930540  10.0754510  64.8243410   4.1217710
  11.3498530  65.6222240   4.2982990   6.7636290  67.8814180   3.4134530
   6.1447730  68.3371680   2.8428970   7.6188070  68.0365640   3.0124230
   5.9574540  63.8653170   5.0201570   5.8882820  62.9243110   4.8590700
   6.7194400  63.9554580   5.5924140   6.9879710  56.6723550   5.2470500
   7.3644530  55.7995430   5.1344170   6.8899220  57.0082250   4.3560940
  10.7703830  54.1673990   2.1798840  11.5913450  53.6770560   2.2224320
  10.8037910  54.7571650   2.9330680   2.9592450  58.0135550   5.0413120
   3.4670670  58.5116520   5.6818140   3.4905690  57.2370750   4.8652480
  15.0603380  56.1840740   8.7442470  14.3555550  56.5722450   8.2257580
  15.3261300  56.8791030   9.3463400   2.4931400  62.2929290   7.4850040
   2.1600780  62.9198210   8.1271110   2.6698080  62.8191170   6.7051710
  11.0065310  56.1074370   4.9526380  10.3020880  56.3959260   5.5329490
  11.3677470  56.9174480   4.5925940  12.6228090  65.7249500   7.2153860
  11.9391610  66.3948610   7.2070530  13.1622380  65.9230150   6.4498720
  14.0752230  55.5529160   5.3435590  13.1277140  55.5868140   5.4751020
  14.4002220  56.3668110   5.7284950   4.6071770  51.8526340   3.6391580
   4.9146750  51.2973230   2.9227080   3.6772470  51.9870800   3.4564570
  10.1586830  67.5693630   5.9299040  10.1713990  67.1655920   5.0621300
   9.6062050  68.3440920   5.8260470   9.5572270  62.4723470   7.2581650
   9.9741060  62.2583580   6.4235110  10.2812090  62.7296260   7.8290270
  13.5034370  60.8710690   7.3497890  12.6753000  60.9403780   6.8748020
  14.0984850  61.4565000   6.8813720  10.4676380  57.6580010   8.2952760
  10.0547560  58.4833720   8.5492750   9.7352330  57.0725050   8.1029120
   2.6009170  60.4439910   3.1571430   2.1966170  59.7317160   2.6617330
   2.6872290  60.0993150   4.0459470   3.0690870  64.1307470   5.3210640
   2.7719160  63.5252940   4.6418420   4.0190690  64.1684780   5.2100000
  11.1576480  67.7039340   8.9833740  10.6807040  68.5111530   8.7906350
  10.4738270  67.0517670   9.1359950   7.3109900  65.6578350   1.8540940
   7.7505810  66.4002680   1.4396330   7.2496790  65.9004920   2.7779900
   2.7860870  66.6824180  12.7560960   2.7576300  67.0867130  11.8889390
   2.6225840  65.7534540  12.5932560  14.7375690  67.4651280  14.0525130
  15.2135410  67.9434170  14.7314210  15.3582850  67.3968770  13.3270630
  14.1408940  64.6564130  11.2125140  14.2672000  64.4176010  10.2942320
  14.1830320  63.8248670  11.6847220   8.0025680  68.3592130   9.7819950
   8.5170350  68.2700140  10.5842380   7.1594760  68.7051830  10.0747860
   9.2456140  67.7797740   1.8450440   9.7013090  66.9987120   2.1589060
   9.5848660  68.4904560   2.3891620  13.9932950  56.7096590  12.1774880
  13.3777220  57.2176260  11.6490340  13.6729370  55.8094920  12.1200820
   6.0547270  55.5488480   9.6437070   5.5926640  55.7571500  10.4557010
   5.6525380  54.7347830   9.3407740  11.0551780  56.7697430  10.7733730
  10.2045370  56.4703180  11.0942800  10.8953570  57.0139440   9.8617550
   8.1501490  58.2699180  12.8732520   8.4754900  57.4362930  12.5334750
   8.9381820  58.7927700  13.0210850   3.8053360  53.2267290   5.8991350
   4.1025690  54.1330120   5.8183370   4.3538920  52.7386070   5.2850920
   3.9990890  58.7039110  12.4343270   3.9034490  57.7633840  12.2843670
   4.8422870  58.9254180  12.0391340   7.3954310  56.4480440   2.3976930
   7.7883880  56.7652640   1.5845620   7.7571160  55.5692320   2.5121450
   5.7046480  55.1987750  13.6573790   5.0144800  55.0059950  14.2919880
   6.4478780  55.4822390  14.1898090   7.9809450  59.0386190   6.4927710
   7.2490570  59.5473000   6.8417810   7.5833790  58.2216170   6.1916490
   4.4186840  55.7140390   4.8980200   4.4222900  55.2730340   4.0484740
   5.3137960  56.0357720   5.0052020   8.4435360  54.4919870   5.9050650
   8.4608100  54.9428520   6.7492500   8.1950940  53.5925510   6.1184090
  11.8706110  51.9052050  11.7437030  12.1951880  51.1741710  12.2695010
  11.9062620  51.5865690  10.8418020   4.7194810  59.7742170   6.6445610
   5.0864940  59.3000740   7.3906950   4.5299870  60.6483740   6.9853950
   2.5094180  58.8150810   8.9629820   2.2051250  59.6942790   9.1880180
   3.4640640  58.8750600   8.9987260  11.7963950  62.0177160   5.3523060
  12.5163070  62.5132450   4.9619170  11.5945770  61.3395050   4.7076930
   7.1782750  62.0886220  11.2392060   7.1120060  61.1681890  10.9849650
   6.5487890  62.1861660  11.9536700   7.1099480  64.9106790  10.9895860
   7.1244020  63.9787750  10.7714770   6.4024580  64.9966550  11.6285630
  13.3210690  61.5514130  10.3364440  12.5958880  62.1442910  10.1393830
  13.8486150  61.5437670   9.5377810   8.8510280  63.2774300   3.8348290
   9.2034100  62.6802430   3.1749660   7.9672610  62.9518530   4.0056540
   6.5433380  66.5524360   8.0836360   7.1875600  66.7583740   8.7609780
   6.9062820  65.7912760   7.6307210   7.8165460  64.5556710   6.8013810
   8.4587690  63.8549870   6.9145980   8.3414810  65.3355150   6.6210700
   9.5903080  65.3551610  10.0049870   9.9259320  65.9418300  10.6827790
   8.6703420  65.2244320  10.2347660   5.4191660  65.4042940  13.1737930
   5.0988530  64.6852180  13.7183620   4.7450020  66.0798010  13.2473990
   8.6345260  55.6369100   8.5374730   9.0026080  54.8164310   8.8654300
   7.7743460  55.6970990   8.9530380   5.5947250  58.2908690   8.7612700
   6.0932500  58.7654510   9.4264550   5.7370200  57.3672210   8.9682730
  12.8014110  54.5076650   9.6041090  12.2987710  55.2482050   9.9434900
  13.6170770  54.8960650   9.2877880  11.0936120  59.7509830   3.0502450
  10.1526260  59.7660060   3.2250140  11.4080190  58.9645790   3.4962750
  13.0961700  66.9218680   4.7256710  13.2209120  67.7449850   5.1980520
  13.9627260  66.7109410   4.3780860   8.4102140  64.3075830  13.5334830
   7.8040300  64.3307430  12.7930580   8.1056250  63.5758870  14.0702080
   9.8402510  68.0356120  12.1444240  10.7924260  67.9514140  12.0944480
   9.6930730  68.6997830  12.8178030   4.3473260  62.0940410  12.0630990
   3.5818930  62.6625410  11.9785660   4.5289220  61.8016620  11.1699220
  11.4896610  63.8245740  12.6206010  12.2306080  64.1621500  12.1173470
  10.7269290  63.9937800  12.0675780  10.1642270  61.8760570  11.1561220
  10.5783290  62.0305650  12.0051640   9.2293270  62.0015790  11.3187000
  10.6364440  59.2156730  13.1600370  11.2185210  58.4609050  13.0720850
  10.8126210  59.7464170  12.3831850   4.5197950  52.9326720   8.5044710
   4.0715250  52.9550980   7.6590260   3.8863150  52.5345740   9.1015010
   4.9257500  61.8281050   9.1257150   5.3445610  62.6713780   8.9533390
   4.0066130  61.9653090   8.8963930   7.2621400  59.5597230  10.5094990
   7.3817610  58.9638370  11.2489830   8.1215400  59.5966920  10.0896290
   9.6009300  60.1134420   9.0857500   9.0744520  60.6377040   8.4822640
   9.9440640  60.7461810   9.7167230   2.7764920  68.1334060  10.2414880
   2.2386010  68.8580120   9.9223580   3.0298880  67.6564400   9.4512220
   4.0290170  56.1018580  11.7670810   4.6189860  55.7934430  12.4548630
   3.2110410  55.6298330  11.9230710   8.8483600  55.7184390  12.0003830
   8.1599120  55.0565930  11.9353820   9.5689620  55.2722660  12.4452290
   5.6327130  69.3685270  10.5001530   5.5585830  70.2720410  10.8073900
   4.7305970  69.0497170  10.4723600  13.1606810  67.0647450  10.8294090
  12.5608800  67.1240010  10.0858010  13.2900710  66.1252430  10.9590940
  14.8624690  62.4062850   3.5139930  15.2333520  61.6230170   3.1075900
  15.5026620  63.0951950   3.3357230  11.8458450  63.7899430   8.9270250
  11.0318290  64.2196590   9.1896040  12.2532650  64.4017840   8.3139300
  13.1948850  58.9287630  10.4539470  12.9634940  58.7000380   9.5537420
  13.4553400  59.8487180  10.4084360  11.6336920  54.1544060  13.2319170
  12.5107100  54.1627460  13.6153170  11.6457760  53.4174900  12.6211520
  13.0800190  58.0073600   4.1207190  13.6037670  57.5136250   3.4897360
  13.6659610  58.1423960   4.8654760  13.2589910  58.0913470   7.6426740
  12.3092620  58.0577010   7.7571730  13.4402920  59.0013580   7.4076510
  13.9987320  55.9007900   2.5937280  13.8886600  55.7463940   3.5319550
  14.7594910  55.3728840   2.3512690  12.3453040  51.8402030   9.0520280
  12.9825260  52.4536170   9.4179470  12.4927930  51.8762690   8.1069510
  11.9034500  68.5418030   2.4538520  12.4993570  68.2202600   1.7772940
  12.1612650  68.0689850   3.2451790   3.5103100  66.5295530   8.2038870
   3.2694460  66.7970090   7.3169390   4.4505740  66.7001260   8.2589730
   5.7157520  52.9928220  11.9595380   5.6546410  53.5850050  12.7090790
   6.6557900  52.8854180  11.8145640   8.3532080  52.6498280  11.5987670
   8.9672490  52.9677570  10.9368750   8.8981640  52.1646870  12.2183530
  14.7707260  68.5489910   9.0049510  14.2765540  68.9458780   8.2876640
  14.1620550  67.9239120   9.3986790   9.0940120  51.2130420   7.9256960
   8.2199960  51.5465530   7.7229890   8.9850870  50.7403600   8.7508830
  10.0012100  53.4201290   9.3098680   9.6725460  52.6053050   8.9300410
  10.9494400  53.3771100   9.1864370  12.4546710  69.1913330   6.2836250
  11.9949680  69.9429140   5.9094270  11.8259170  68.4719800   6.2251050
   2.8842430  67.5001570   5.4584380   3.4007450  66.8888930   4.9332640
   3.5339810  68.0030350   5.9495390   5.6237930  68.3910060   6.2853360
   5.9115740  68.1364360   5.4086370   6.1361150  67.8387420   6.8758930
   6.8414940  52.1300260   6.8649870   6.0586730  52.6045760   7.1446630
   6.5477870  51.2255090   6.7563050  11.3936010  52.8323360   4.9098960
  11.8344100  52.7768460   4.0620560  11.1243600  53.7481370   4.9809140
  13.2574580  52.4638600   2.9207780  13.1962980  51.5199820   2.7738800
  14.0366610  52.5718690   3.4661240   4.7269160  54.5487010   2.3765900
   3.9143670  54.1743900   2.0361780   5.2310800  53.7932090   2.6787090
   9.2294140  51.2129460   3.6148970   9.8323510  51.7849670   4.0897490
   8.4887130  51.7768900   3.3922870   5.6910290  69.3126160  13.6521560
   6.6177600  69.0770430  13.6957520   5.6760720  70.1398160  13.1707590
   2.8773900  51.9770910  13.4163440   2.5958170  52.4804510  12.6524260
   3.2593600  51.1792660  13.0505570   9.4789360  51.3924490  13.9943910
   9.3654810  51.7119100  14.8895430  10.2959100  51.7937000  13.6981190
  12.2587850  68.5396020  13.4762600  13.0513170  68.0445250  13.2688560
  12.5521000  69.2186160  14.0838210   8.3847510  40.6373470  78.2296100
   8.3041560  39.7228080  77.9587810   7.9711930  41.1340540  77.5235810
   6.5165550  42.4152490  80.1105370   5.7407650  41.9352930  80.4003940
   7.1678480  41.7358140  79.9361530  10.5372980  46.8212680  78.8904500
  10.0754510  46.0499920  79.2191670  11.3498530  46.8478750  79.3956950
   6.7636290  49.1070690  78.5108490   6.1447730  49.5628190  77.9402930
   7.6188070  49.2622150  78.1098190   5.9574540  45.0909680  80.1175530
   5.8882820  44.1499620  79.9564660   6.7194400  45.1811090  80.6898100
   6.9879710  37.8980060  80.3444460   7.3644530  37.0251940  80.2318130
   6.8899220  38.2338760  79.4534900  10.7703830  35.3930500  77.2772800
  11.5913450  34.9027070  77.3198280  10.8037910  35.9828160  78.0304640
   2.9592450  39.2392060  80.1387080   3.4670670  39.7373030  80.7792100
   3.4905690  38.4627260  79.9626440   7.6299640  43.9909930  75.9040400
   7.0116910  44.4559380  75.3403120   8.1422890  44.6837410  76.3209910
   2.4931400  43.5185800  82.5824000   2.1600780  44.1454720  83.2245070
   2.6698080  44.0447680  81.8025670  11.0065310  37.3330880  80.0500340
  10.3020880  37.6215770  80.6303450  11.3677470  38.1430990  79.6899900
  12.6228090  46.9506010  82.3127820  11.9391610  47.6205120  82.3044490
  13.1622380  47.1486660  81.5472680  14.0752230  36.7785670  80.4409550
  13.1277140  36.8124650  80.5724980  14.4002220  37.5924620  80.8258910
   4.6071770  33.0782850  78.7365540   4.9146750  32.5229740  78.0201040
   3.6772470  33.2127310  78.5538530  10.1586830  48.7950140  81.0273000
  10.1713990  48.3912430  80.1595260   9.6062050  49.5697430  80.9234430
  11.4532250  45.5166360  76.1163170  11.3428580  44.5740690  76.2412590
  11.4500500  45.8782000  77.0025930   9.5572270  43.6979980  82.3555610
   9.9741060  43.4840090  81.5209070  10.2812090  43.9552770  82.9264230
   6.9952530  41.1431680  75.4725660   6.0681810  41.0769060  75.7014130
   7.1477350  42.0811810  75.3580900   6.9821610  37.4148680  72.4692820
   6.0425280  37.5762640  72.5545280   7.3004870  38.1334360  71.9228810
  13.5034370  42.0967200  82.4471850  12.6753000  42.1660290  81.9721980
  14.0984850  42.6821510  81.9787680  11.0249820  42.7051980  75.9760910
  10.4062240  42.3671530  75.3287210  11.0074270  42.0611740  76.6840100
   2.6009170  41.6696420  78.2545390   2.1966170  40.9573670  77.7591290
   2.6872290  41.3249660  79.1433430   3.0690870  45.3563980  80.4184600
   2.7719160  44.7509450  79.7392380   4.0190690  45.3941290  80.3073960
   9.2014520  41.9438790  72.9833660   9.6407800  41.1061220  72.8371480
   9.9142940  42.5768190  73.0697800   7.3109900  46.8834860  76.9514900
   7.7505810  47.6259190  76.5370290   7.2496790  47.1261430  77.8753860
  12.7831660  33.1981600  71.2974700  12.4704320  33.2908430  72.1973770
  13.5444130  33.7762630  71.2472130   9.9780080  49.8703980  74.3077910
   9.8181220  49.5806920  75.2059740   9.8126790  49.0944110  73.7723140
   2.4568460  49.6502510  76.0849530   2.2810940  48.7338050  75.8717330
   1.6024200  50.0089800  76.3247330   9.6806210  47.3791540  72.8675910
   8.9871370  47.3768830  72.2078190  10.4229070  46.9550860  72.4370080
   9.2456140  49.0054250  76.9424400   9.7013090  48.2243630  77.2563020
   9.5848660  49.7161070  77.4865580   4.8836280  33.5287170  74.0181540
   4.2590460  33.5247040  74.7434850   4.7966400  32.6618130  73.6217510
   3.8053360  34.4523800  80.9965310   4.1025690  35.3586630  80.9157330
   4.3538920  33.9642580  80.3824880   8.7889440  39.0373410  75.4647610
   8.1898330  39.7609210  75.2811230   9.3369050  38.9750190  74.6824060
   7.3954310  37.6736950  77.4950890   7.7883880  37.9909150  76.6819580
   7.7571160  36.7948830  77.6095410   7.9809450  40.2642700  81.5901670
   7.2490570  40.7729510  81.9391770   7.5833790  39.4472680  81.2890450
   4.4186840  36.9396900  79.9954160   4.4222900  36.4986850  79.1458700
   5.3137960  37.2614230  80.1025980   4.4806990  37.9408980  72.9860920
   4.6019810  37.8995460  73.9346740   4.0955500  38.8033130  72.8307650
   8.4435360  35.7176380  81.0024610   8.4608100  36.1685030  81.8466460
   8.1950940  34.8182020  81.2158050   3.4928490  40.2510120  72.3844220
   2.9245390  39.8028370  71.7580130   4.2017490  40.6102900  71.8509370
   4.7194810  40.9998680  81.7419570   5.0864940  40.5257250  82.4880910
   4.5299870  41.8740250  82.0827910  11.7963950  43.2433670  80.4497020
  12.5163070  43.7388960  80.0593130  11.5945770  42.5651560  79.8050890
   7.2573890  34.6371630  74.5926410   6.4438500  34.1384800  74.5171720
   7.0635840  35.4769880  74.1762760   9.9722280  39.0091280  72.8888570
  10.8601900  39.3208510  72.7139910   9.9427370  38.1363530  72.4969150
   5.9682870  45.1814970  73.5676740   6.3098570  45.9257200  73.0720060
   5.1395580  45.4946090  73.9301570  12.2436550  40.3203120  72.3568430
  12.1600270  40.7517340  71.5064870  12.9630740  40.7801470  72.7895250
  13.2723800  47.1745380  75.0850560  12.6299960  46.5201000  75.3594280
  12.8854460  47.5800470  74.3091230   8.8510280  44.5030810  78.9322250
   9.2034100  43.9058940  78.2723620   7.9672610  44.1775040  79.1030500
   4.9373560  45.2628500  76.3392660   5.6244690  45.8097710  76.7200250
   4.1505980  45.8069230  76.3742270   4.2400770  42.2674530  75.9518020
   4.6963550  43.0779780  76.1778210   3.8888980  41.9497670  76.7836510
   7.8165460  45.7813220  81.8987770   8.4587690  45.0806380  82.0119940
   8.3414810  46.5611660  81.7184660  11.6621180  46.0661840  71.6226910
  11.4358760  45.3492280  72.2151550  11.2717380  45.8174280  70.7848660
  11.2437430  43.9833780  73.2841070  10.9559130  44.4446470  74.0718950
  12.0389600  43.5231550  73.5525290   3.4605830  47.4759900  73.2145040
   3.4515930  48.2089590  72.5989550   2.5404190  47.2291480  73.3072000
  12.0007290  35.8182550  74.4436250  11.3720450  35.9228220  73.7294480
  11.5059210  36.0379330  75.2330130   6.4465430  47.5388140  71.8770230
   6.5477410  47.3352130  70.9472210   5.5467170  47.2846420  72.0818010
   3.9691320  38.0968500  75.8594130   3.2607470  38.5654840  76.3007740
   4.2535800  37.4390510  76.4939320   8.0006750  34.8219160  77.2989920
   7.8774530  34.8405290  76.3499430   8.9491310  34.8698100  77.4188320
   5.0883540  50.0574460  76.5717900   5.3425040  50.0195850  75.6497270
   4.1396020  49.9307790  76.5646150   2.1726340  36.4053580  73.2344840
   3.0216870  36.8423730  73.1685030   1.8057610  36.7173840  74.0616900
  11.0936120  40.9766340  78.1476410  10.1526260  40.9916570  78.3224100
  11.4080190  40.1902300  78.5936710  13.0961700  48.1475190  79.8230670
  13.2209120  48.9706360  80.2954480  13.9627260  47.9365920  79.4754820
   3.6781540  49.4136710  71.3173370   4.4710150  49.7025540  70.8655160
   3.1585890  48.9828880  70.6385850  12.7311710  48.6406840  72.7410110
  12.4453220  48.2271980  71.9264290  12.5331260  49.5694550  72.6210630
   4.1958940  44.6340120  71.1815720   4.0909580  44.0192470  71.9077100
   4.0283160  44.1106010  70.3978730   7.4361670  43.6960150  71.7857710
   6.8871770  44.1429450  72.4300450   8.0580930  43.1909400  72.3095380
   3.1036790  42.6551070  73.6823010   3.5253210  42.4890940  74.5254400
   3.2287630  41.8451300  73.1878150   5.6164430  41.6788680  70.9300110
   6.1370090  40.9637700  70.5641260   6.2632830  42.3174550  71.2300620
   1.9995690  38.7284300  70.6281170   1.7984750  37.8651660  70.9894510
   1.8287740  38.6417660  69.6902770   9.4784000  33.5392530  73.1568050
   9.7586290  32.6960430  73.5127470   8.7049730  33.7715640  73.6706800
   4.0163420  34.7719540  71.6015250   3.6685420  34.0943530  71.0217700
   4.2176190  34.3109050  72.4158640   6.1812460  49.7600290  73.2201850
   7.0763250  50.0985260  73.2420610   6.2130090  49.0379700  72.5926130
  14.4008260  46.0321780  71.2637760  13.5701220  46.0998430  71.7344990
  14.5780090  46.9225900  70.9604620  13.8564720  42.7769260  73.7671960
  14.6183630  43.3465910  73.8731650  13.8719090  42.2096460  74.5380270
  14.8624690  43.6319360  78.6113890  15.2333520  42.8486680  78.2049860
  15.5026620  44.3208460  78.4331190  13.9083890  43.0703630  70.9244480
  14.1832730  43.9782510  70.7963700  13.7194630  43.0066160  71.8606470
  10.3059500  36.0948480  72.2198110  10.7244380  35.9079460  71.3794770
   9.9995560  35.2427530  72.5301040  13.8049230  41.0072620  75.9173910
  13.4292830  40.2400550  75.4855200  13.0752350  41.3895320  76.4048840
  13.0800190  39.2330110  79.2181150  13.6037670  38.7392760  78.5871320
  13.6659610  39.3680470  79.9628720  13.2589910  39.3169980  82.7400700
  12.3092620  39.2833520  82.8545690  13.4402920  40.2270090  82.5050470
  12.5700160  38.4903460  75.1573560  13.0659280  38.2574330  75.9422440
  12.3716230  37.6515300  74.7411200  13.9987320  37.1264410  77.6911240
  13.8886600  36.9720450  78.6293510  14.7594910  36.5985350  77.4486650
  14.8877590  34.9572330  70.9317380  15.8126900  34.8253510  70.7235670
  14.8653380  35.0365150  71.8853830  14.9616080  35.7282990  73.5574090
  14.1667580  35.6628110  74.0867000  15.1659360  36.6633630  73.5459440
  11.9034500  49.7674540  77.5512480  12.4993570  49.4459110  76.8746900
  12.1612650  49.2946360  78.3425750  12.4546710  50.4169840  81.3810210
  11.9949680  51.1685650  81.0068230  11.8259170  49.6976310  81.3225010
   2.8842430  48.7258080  80.5558340   3.4007450  48.1145440  80.0306600
   3.5339810  49.2286860  81.0469350   5.6237930  49.6166570  81.3827320
   5.9115740  49.3620870  80.5060330   6.1361150  49.0643930  81.9732890
   6.8414940  33.3556770  81.9623830   6.0586730  33.8302270  82.2420590
   6.5477870  32.4511600  81.8537010  11.3936010  34.0579870  80.0072920
  11.8344100  34.0024970  79.1594520  11.1243600  34.9737880  80.0783100
  13.2574580  33.6895110  78.0181740  13.1962980  32.7456330  77.8712760
  14.0366610  33.7975200  78.5635200   4.7269160  35.7743520  77.4739860
   3.9143670  35.4000410  77.1335740   5.2310800  35.0188600  77.7761050
   9.2294140  32.4385970  78.7122930   9.8323510  33.0106180  79.1871450
   8.4887130  33.0025410  78.4896830  12.3728740  32.8407530  73.9863210
  12.5679370  33.7390980  74.2530640  11.5858610  32.6094610  74.4796160
   2.7518340  33.9243440  76.0784910   2.1221080  33.2230750  76.2455040
   2.2123480  34.6847570  75.8618070  13.9255350  50.0808240  75.7469770
  14.1007540  49.3945980  75.1030690  13.2276920  50.6055290  75.3546440
   1.7683000  50.4703080  73.3005080   2.5001820  50.1862360  72.7528970
   2.0276670  50.2316360  74.1904460   8.3847510  40.6373470  59.4552610
   8.3041560  39.7228080  59.1844320   7.9711930  41.1340540  58.7492320
   6.5165550  42.4152490  61.3361880   5.7407650  41.9352930  61.6260450
   7.1678480  41.7358140  61.1618040  10.5372980  46.8212680  60.1161010
  10.0754510  46.0499920  60.4448180  11.3498530  46.8478750  60.6213460
   6.7636290  49.1070690  59.7365000   6.1447730  49.5628190  59.1659440
   7.6188070  49.2622150  59.3354700   5.9574540  45.0909680  61.3432040
   5.8882820  44.1499620  61.1821170   6.7194400  45.1811090  61.9154610
   6.9879710  37.8980060  61.5700970   7.3644530  37.0251940  61.4574640
   6.8899220  38.2338760  60.6791410  10.7703830  35.3930500  58.5029310
  11.5913450  34.9027070  58.5454790  10.8037910  35.9828160  59.2561150
   2.9592450  39.2392060  61.3643590   3.4670670  39.7373030  62.0048610
   3.4905690  38.4627260  61.1882950  15.0603380  37.4097250  65.0672940
  14.3555550  37.7978960  64.5488050  15.3261300  38.1047540  65.6693870
   7.6299640  43.9909930  57.1296910   7.0116910  44.4559380  56.5659630
   8.1422890  44.6837410  57.5466420   2.4931400  43.5185800  63.8080510
   2.1600780  44.1454720  64.4501580   2.6698080  44.0447680  63.0282180
  11.0065310  37.3330880  61.2756850  10.3020880  37.6215770  61.8559960
  11.3677470  38.1430990  60.9156410  12.6228090  46.9506010  63.5384330
  11.9391610  47.6205120  63.5301000  13.1622380  47.1486660  62.7729190
  14.0752230  36.7785670  61.6666060  13.1277140  36.8124650  61.7981490
  14.4002220  37.5924620  62.0515420   4.6071770  33.0782850  59.9622050
   4.9146750  32.5229740  59.2457550   3.6772470  33.2127310  59.7795040
  10.1586830  48.7950140  62.2529510  10.1713990  48.3912430  61.3851770
   9.6062050  49.5697430  62.1490940  11.4532250  45.5166360  57.3419680
  11.3428580  44.5740690  57.4669100  11.4500500  45.8782000  58.2282440
   9.5572270  43.6979980  63.5812120   9.9741060  43.4840090  62.7465580
  10.2812090  43.9552770  64.1520740   6.9952530  41.1431680  56.6982170
   6.0681810  41.0769060  56.9270640   7.1477350  42.0811810  56.5837410
   6.9821610  37.4148680  53.6949330   6.0425280  37.5762640  53.7801790
   7.3004870  38.1334360  53.1485320  13.5034370  42.0967200  63.6728360
  12.6753000  42.1660290  63.1978490  14.0984850  42.6821510  63.2044190
  11.0249820  42.7051980  57.2017420  10.4062240  42.3671530  56.5543720
  11.0074270  42.0611740  57.9096610  10.4676380  38.8836520  64.6183230
  10.0547560  39.7090230  64.8723220   9.7352330  38.2981560  64.4259590
   2.6009170  41.6696420  59.4801900   2.1966170  40.9573670  58.9847800
   2.6872290  41.3249660  60.3689940   3.0690870  45.3563980  61.6441110
   2.7719160  44.7509450  60.9648890   4.0190690  45.3941290  61.5330470
  11.1576480  48.9295850  65.3064210  10.6807040  49.7368040  65.1136820
  10.4738270  48.2774180  65.4590420   9.2014520  41.9438790  54.2090170
   9.6407800  41.1061220  54.0627990   9.9142940  42.5768190  54.2954310
   7.3109900  46.8834860  58.1771410   7.7505810  47.6259190  57.7626800
   7.2496790  47.1261430  59.1010370   2.7860870  47.9080690  69.0791430
   2.7576300  48.3123640  68.2119860   2.6225840  46.9791050  68.9163030
  12.7831660  33.1981600  52.5231210  12.4704320  33.2908430  53.4230280
  13.5444130  33.7762630  52.4728640  14.7375690  48.6907790  70.3755600
  15.2135410  49.1690680  71.0544680  15.3582850  48.6225280  69.6501100
  14.1408940  45.8820640  67.5355610  14.2672000  45.6432520  66.6172790
  14.1830320  45.0505180  68.0077690   8.0025680  49.5848640  66.1050420
   8.5170350  49.4956650  66.9072850   7.1594760  49.9308340  66.3978330
   9.9780080  49.8703980  55.5334420   9.8181220  49.5806920  56.4316250
   9.8126790  49.0944110  54.9979650   2.4568460  49.6502510  57.3106040
   2.2810940  48.7338050  57.0973840   1.6024200  50.0089800  57.5503840
   9.6806210  47.3791540  54.0932420   8.9871370  47.3768830  53.4334700
  10.4229070  46.9550860  53.6626590   9.2456140  49.0054250  58.1680910
   9.7013090  48.2243630  58.4819530   9.5848660  49.7161070  58.7122090
  13.9932950  37.9353100  68.5005350  13.3777220  38.4432770  67.9720810
  13.6729370  37.0351430  68.4431290   6.0547270  36.7744990  65.9667540
   5.5926640  36.9828010  66.7787480   5.6525380  35.9604340  65.6638210
  11.0551780  37.9953940  67.0964200  10.2045370  37.6959690  67.4173270
  10.8953570  38.2395950  66.1848020   8.1501490  39.4955690  69.1962990
   8.4754900  38.6619440  68.8565220   8.9381820  40.0184210  69.3441320
   4.8836280  33.5287170  55.2438050   4.2590460  33.5247040  55.9691360
   4.7966400  32.6618130  54.8474020   3.8053360  34.4523800  62.2221820
   4.1025690  35.3586630  62.1413840   4.3538920  33.9642580  61.6081390
   8.7889440  39.0373410  56.6904120   8.1898330  39.7609210  56.5067740
   9.3369050  38.9750190  55.9080570   3.9990890  39.9295620  68.7573740
   3.9034490  38.9890350  68.6074140   4.8422870  40.1510690  68.3621810
   7.3954310  37.6736950  58.7207400   7.7883880  37.9909150  57.9076090
   7.7571160  36.7948830  58.8351920   5.7046480  36.4244260  69.9804260
   5.0144800  36.2316460  70.6150350   6.4478780  36.7078900  70.5128560
   7.9809450  40.2642700  62.8158180   7.2490570  40.7729510  63.1648280
   7.5833790  39.4472680  62.5146960   4.4186840  36.9396900  61.2210670
   4.4222900  36.4986850  60.3715210   5.3137960  37.2614230  61.3282490
   4.4806990  37.9408980  54.2117430   4.6019810  37.8995460  55.1603250
   4.0955500  38.8033130  54.0564160   8.4435360  35.7176380  62.2281120
   8.4608100  36.1685030  63.0722970   8.1950940  34.8182020  62.4414560
   3.4928490  40.2510120  53.6100730   2.9245390  39.8028370  52.9836640
   4.2017490  40.6102900  53.0765880  11.8706110  33.1308560  68.0667500
  12.1951880  32.3998220  68.5925480  11.9062620  32.8122200  67.1648490
   4.7194810  40.9998680  62.9676080   5.0864940  40.5257250  63.7137420
   4.5299870  41.8740250  63.3084420   2.5094180  40.0407320  65.2860290
   2.2051250  40.9199300  65.5110650   3.4640640  40.1007110  65.3217730
  11.7963950  43.2433670  61.6753530  12.5163070  43.7388960  61.2849640
  11.5945770  42.5651560  61.0307400   7.2573890  34.6371630  55.8182920
   6.4438500  34.1384800  55.7428230   7.0635840  35.4769880  55.4019270
   7.1782750  43.3142730  67.5622530   7.1120060  42.3938400  67.3080120
   6.5487890  43.4118170  68.2767170   9.9722280  39.0091280  54.1145080
  10.8601900  39.3208510  53.9396420   9.9427370  38.1363530  53.7225660
   5.9682870  45.1814970  54.7933250   6.3098570  45.9257200  54.2976570
   5.1395580  45.4946090  55.1558080   7.1099480  46.1363300  67.3126330
   7.1244020  45.2044260  67.0945240   6.4024580  46.2223060  67.9516100
  12.2436550  40.3203120  53.5824940  12.1600270  40.7517340  52.7321380
  12.9630740  40.7801470  54.0151760  13.3210690  42.7770640  66.6594910
  12.5958880  43.3699420  66.4624300  13.8486150  42.7694180  65.8608280
  13.2723800  47.1745380  56.3107070  12.6299960  46.5201000  56.5850790
  12.8854460  47.5800470  55.5347740   8.8510280  44.5030810  60.1578760
   9.2034100  43.9058940  59.4980130   7.9672610  44.1775040  60.3287010
   4.9373560  45.2628500  57.5649170   5.6244690  45.8097710  57.9456760
   4.1505980  45.8069230  57.5998780   4.2400770  42.2674530  57.1774530
   4.6963550  43.0779780  57.4034720   3.8888980  41.9497670  58.0093020
   6.5433380  47.7780870  64.4066830   7.1875600  47.9840250  65.0840250
   6.9062820  47.0169270  63.9537680   7.8165460  45.7813220  63.1244280
   8.4587690  45.0806380  63.2376450   8.3414810  46.5611660  62.9441170
  11.6621180  46.0661840  52.8483420  11.4358760  45.3492280  53.4408060
  11.2717380  45.8174280  52.0105170   9.5903080  46.5808120  66.3280340
   9.9259320  47.1674810  67.0058260   8.6703420  46.4500830  66.5578130
  11.2437430  43.9833780  54.5097580  10.9559130  44.4446470  55.2975460
  12.0389600  43.5231550  54.7781800   5.4191660  46.6299450  69.4968400
   5.0988530  45.9108690  70.0414090   4.7450020  47.3054520  69.5704460
   3.4605830  47.4759900  54.4401550   3.4515930  48.2089590  53.8246060
   2.5404190  47.2291480  54.5328510   8.6345260  36.8625610  64.8605200
   9.0026080  36.0420820  65.1884770   7.7743460  36.9227500  65.2760850
  12.0007290  35.8182550  55.6692760  11.3720450  35.9228220  54.9550990
  11.5059210  36.0379330  56.4586640   6.4465430  47.5388140  53.1026740
   6.5477410  47.3352130  52.1728720   5.5467170  47.2846420  53.3074520
   3.9691320  38.0968500  57.0850640   3.2607470  38.5654840  57.5264250
   4.2535800  37.4390510  57.7195830   5.5947250  39.5165200  65.0843170
   6.0932500  39.9911020  65.7495020   5.7370200  38.5928720  65.2913200
   8.0006750  34.8219160  58.5246430   7.8774530  34.8405290  57.5755940
   8.9491310  34.8698100  58.6444830   5.0883540  50.0574460  57.7974410
   5.3425040  50.0195850  56.8753780   4.1396020  49.9307790  57.7902660
   2.1726340  36.4053580  54.4601350   3.0216870  36.8423730  54.3941540
   1.8057610  36.7173840  55.2873410  12.8014110  35.7333160  65.9271560
  12.2987710  36.4738560  66.2665370  13.6170770  36.1217160  65.6108350
  11.0936120  40.9766340  59.3732920  10.1526260  40.9916570  59.5480610
  11.4080190  40.1902300  59.8193220  13.0961700  48.1475190  61.0487180
  13.2209120  48.9706360  61.5210990  13.9627260  47.9365920  60.7011330
   3.6781540  49.4136710  52.5429880   4.4710150  49.7025540  52.0911670
   3.1585890  48.9828880  51.8642360   8.4102140  45.5332340  69.8565300
   7.8040300  45.5563940  69.1161050   8.1056250  44.8015380  70.3932550
   9.8402510  49.2612630  68.4674710  10.7924260  49.1770650  68.4174950
   9.6930730  49.9254340  69.1408500  12.7311710  48.6406840  53.9666620
  12.4453220  48.2271980  53.1520800  12.5331260  49.5694550  53.8467140
   4.1958940  44.6340120  52.4072230   4.0909580  44.0192470  53.1333610
   4.0283160  44.1106010  51.6235240   4.3473260  43.3196920  68.3861460
   3.5818930  43.8881920  68.3016130   4.5289220  43.0273130  67.4929690
   7.4361670  43.6960150  53.0114220   6.8871770  44.1429450  53.6556960
   8.0580930  43.1909400  53.5351890  11.4896610  45.0502250  68.9436480
  12.2306080  45.3878010  68.4403940  10.7269290  45.2194310  68.3906250
   3.1036790  42.6551070  54.9079520   3.5253210  42.4890940  55.7510910
   3.2287630  41.8451300  54.4134660   5.6164430  41.6788680  52.1556620
   6.1370090  40.9637700  51.7897770   6.2632830  42.3174550  52.4557130
  10.1642270  43.1017080  67.4791690  10.5783290  43.2562160  68.3282110
   9.2293270  43.2272300  67.6417470  10.6364440  40.4413240  69.4830840
  11.2185210  39.6865560  69.3951320  10.8126210  40.9720680  68.7062320
   4.5197950  34.1583230  64.8275180   4.0715250  34.1807490  63.9820730
   3.8863150  33.7602250  65.4245480   4.9257500  43.0537560  65.4487620
   5.3445610  43.8970290  65.2763860   4.0066130  43.1909600  65.2194400
   7.2621400  40.7853740  66.8325460   7.3817610  40.1894880  67.5720300
   8.1215400  40.8223430  66.4126760   9.6009300  41.3390930  65.4087970
   9.0744520  41.8633550  64.8053110   9.9440640  41.9718320  66.0397700
   1.9995690  38.7284300  51.8537680   1.7984750  37.8651660  52.2151020
   1.8287740  38.6417660  50.9159280   2.7764920  49.3590570  66.5645350
   2.2386010  50.0836630  66.2454050   3.0298880  48.8820910  65.7742690
   4.0290170  37.3275090  68.0901280   4.6189860  37.0190940  68.7779100
   3.2110410  36.8554840  68.2461180   8.8483600  36.9440900  68.3234300
   8.1599120  36.2822440  68.2584290   9.5689620  36.4979170  68.7682760
   9.4784000  33.5392530  54.3824560   9.7586290  32.6960430  54.7383980
   8.7049730  33.7715640  54.8963310   5.6327130  50.5941780  66.8232000
   5.5585830  51.4976920  67.1304370   4.7305970  50.2753680  66.7954070
   4.0163420  34.7719540  52.8271760   3.6685420  34.0943530  52.2474210
   4.2176190  34.3109050  53.6415150   6.1812460  49.7600290  54.4458360
   7.0763250  50.0985260  54.4677120   6.2130090  49.0379700  53.8182640
  13.1606810  48.2903960  67.1524560  12.5608800  48.3496520  66.4088480
  13.2900710  47.3508940  67.2821410  14.4008260  46.0321780  52.4894270
  13.5701220  46.0998430  52.9601500  14.5780090  46.9225900  52.1861130
  13.8564720  42.7769260  54.9928470  14.6183630  43.3465910  55.0988160
  13.8719090  42.2096460  55.7636780  14.8624690  43.6319360  59.8370400
  15.2333520  42.8486680  59.4306370  15.5026620  44.3208460  59.6587700
  11.8458450  45.0155940  65.2500720  11.0318290  45.4453100  65.5126510
  12.2532650  45.6274350  64.6369770  13.9083890  43.0703630  52.1500990
  14.1832730  43.9782510  52.0220210  13.7194630  43.0066160  53.0862980
  10.3059500  36.0948480  53.4454620  10.7244380  35.9079460  52.6051280
   9.9995560  35.2427530  53.7557550  13.8049230  41.0072620  57.1430420
  13.4292830  40.2400550  56.7111710  13.0752350  41.3895320  57.6305350
  13.1948850  40.1544140  66.7769940  12.9634940  39.9256890  65.8767890
  13.4553400  41.0743690  66.7314830  11.6336920  35.3800570  69.5549640
  12.5107100  35.3883970  69.9383640  11.6457760  34.6431410  68.9441990
  13.0800190  39.2330110  60.4437660  13.6037670  38.7392760  59.8127830
  13.6659610  39.3680470  61.1885230  13.2589910  39.3169980  63.9657210
  12.3092620  39.2833520  64.0802200  13.4402920  40.2270090  63.7306980
  12.5700160  38.4903460  56.3830070  13.0659280  38.2574330  57.1678950
  12.3716230  37.6515300  55.9667710  13.9987320  37.1264410  58.9167750
  13.8886600  36.9720450  59.8550020  14.7594910  36.5985350  58.6743160
  12.3453040  33.0658540  65.3750750  12.9825260  33.6792680  65.7409940
  12.4927930  33.1019200  64.4299980  14.8877590  34.9572330  52.1573890
  15.8126900  34.8253510  51.9492180  14.8653380  35.0365150  53.1110340
  14.9616080  35.7282990  54.7830600  14.1667580  35.6628110  55.3123510
  15.1659360  36.6633630  54.7715950  11.9034500  49.7674540  58.7768990
  12.4993570  49.4459110  58.1003410  12.1612650  49.2946360  59.5682260
   3.5103100  47.7552040  64.5269340   3.2694460  48.0226600  63.6399860
   4.4505740  47.9257770  64.5820200   5.7157520  34.2184730  68.2825850
   5.6546410  34.8106560  69.0321260   6.6557900  34.1110690  68.1376110
   8.3532080  33.8754790  67.9218140   8.9672490  34.1934080  67.2599220
   8.8981640  33.3903380  68.5414000  14.7707260  49.7746420  65.3279980
  14.2765540  50.1715290  64.6107110  14.1620550  49.1495630  65.7217260
   9.0940120  32.4386930  64.2487430   8.2199960  32.7722040  64.0460360
   8.9850870  31.9660110  65.0739300  10.0012100  34.6457800  65.6329150
   9.6725460  33.8309560  65.2530880  10.9494400  34.6027610  65.5094840
  12.4546710  50.4169840  62.6066720  11.9949680  51.1685650  62.2324740
  11.8259170  49.6976310  62.5481520   2.8842430  48.7258080  61.7814850
   3.4007450  48.1145440  61.2563110   3.5339810  49.2286860  62.2725860
   5.6237930  49.6166570  62.6083830   5.9115740  49.3620870  61.7316840
   6.1361150  49.0643930  63.1989400   6.8414940  33.3556770  63.1880340
   6.0586730  33.8302270  63.4677100   6.5477870  32.4511600  63.0793520
  11.3936010  34.0579870  61.2329430  11.8344100  34.0024970  60.3851030
  11.1243600  34.9737880  61.3039610  13.2574580  33.6895110  59.2438250
  13.1962980  32.7456330  59.0969270  14.0366610  33.7975200  59.7891710
   4.7269160  35.7743520  58.6996370   3.9143670  35.4000410  58.3592250
   5.2310800  35.0188600  59.0017560   9.2294140  32.4385970  59.9379440
   9.8323510  33.0106180  60.4127960   8.4887130  33.0025410  59.7153340
  12.3728740  32.8407530  55.2119720  12.5679370  33.7390980  55.4787150
  11.5858610  32.6094610  55.7052670   2.7518340  33.9243440  57.3041420
   2.1221080  33.2230750  57.4711550   2.2123480  34.6847570  57.0874580
   5.6910290  50.5382670  69.9752030   6.6177600  50.3026940  70.0187990
   5.6760720  51.3654670  69.4938060  13.9255350  50.0808240  56.9726280
  14.1007540  49.3945980  56.3287200  13.2276920  50.6055290  56.5802950
   2.8773900  33.2027420  69.7393910   2.5958170  33.7061020  68.9754730
   3.2593600  32.4049170  69.3736040   1.7683000  50.4703080  54.5261590
   2.5001820  50.1862360  53.9785480   2.0276670  50.2316360  55.4160970
   9.4789360  32.6181000  70.3174380   9.3654810  32.9375610  71.2125900
  10.2959100  33.0193510  70.0211660  12.2587850  49.7652530  69.7993070
  13.0513170  49.2701760  69.5919030  12.5521000  50.4442670  70.4068680
   8.3847510  40.6373470  40.6809120   8.3041560  39.7228080  40.4100830
   7.9711930  41.1340540  39.9748830   6.5165550  42.4152490  42.5618390
   5.7407650  41.9352930  42.8516960   7.1678480  41.7358140  42.3874550
  10.5372980  46.8212680  41.3417520  10.0754510  46.0499920  41.6704690
  11.3498530  46.8478750  41.8469970   6.7636290  49.1070690  40.9621510
   6.1447730  49.5628190  40.3915950   7.6188070  49.2622150  40.5611210
   5.9574540  45.0909680  42.5688550   5.8882820  44.1499620  42.4077680
   6.7194400  45.1811090  43.1411120   6.9879710  37.8980060  42.7957480
   7.3644530  37.0251940  42.6831150   6.8899220  38.2338760  41.9047920
  10.7703830  35.3930500  39.7285820  11.5913450  34.9027070  39.7711300
  10.8037910  35.9828160  40.4817660   2.9592450  39.2392060  42.5900100
   3.4670670  39.7373030  43.2305120   3.4905690  38.4627260  42.4139460
  15.0603380  37.4097250  46.2929450  14.3555550  37.7978960  45.7744560
  15.3261300  38.1047540  46.8950380   7.6299640  43.9909930  38.3553420
   7.0116910  44.4559380  37.7916140   8.1422890  44.6837410  38.7722930
   2.4931400  43.5185800  45.0337020   2.1600780  44.1454720  45.6758090
   2.6698080  44.0447680  44.2538690  11.0065310  37.3330880  42.5013360
  10.3020880  37.6215770  43.0816470  11.3677470  38.1430990  42.1412920
  12.6228090  46.9506010  44.7640840  11.9391610  47.6205120  44.7557510
  13.1622380  47.1486660  43.9985700  14.0752230  36.7785670  42.8922570
  13.1277140  36.8124650  43.0238000  14.4002220  37.5924620  43.2771930
   4.6071770  33.0782850  41.1878560   4.9146750  32.5229740  40.4714060
   3.6772470  33.2127310  41.0051550  10.1586830  48.7950140  43.4786020
  10.1713990  48.3912430  42.6108280   9.6062050  49.5697430  43.3747450
  11.4532250  45.5166360  38.5676190  11.3428580  44.5740690  38.6925610
  11.4500500  45.8782000  39.4538950   9.5572270  43.6979980  44.8068630
   9.9741060  43.4840090  43.9722090  10.2812090  43.9552770  45.3777250
   6.9952530  41.1431680  37.9238680   6.0681810  41.0769060  38.1527150
   7.1477350  42.0811810  37.8093920   6.9821610  37.4148680  34.9205840
   6.0425280  37.5762640  35.0058300   7.3004870  38.1334360  34.3741830
  13.5034370  42.0967200  44.8984870  12.6753000  42.1660290  44.4235000
  14.0984850  42.6821510  44.4300700  11.0249820  42.7051980  38.4273930
  10.4062240  42.3671530  37.7800230  11.0074270  42.0611740  39.1353120
  10.4676380  38.8836520  45.8439740  10.0547560  39.7090230  46.0979730
   9.7352330  38.2981560  45.6516100   2.6009170  41.6696420  40.7058410
   2.1966170  40.9573670  40.2104310   2.6872290  41.3249660  41.5946450
   3.0690870  45.3563980  42.8697620   2.7719160  44.7509450  42.1905400
   4.0190690  45.3941290  42.7586980  11.1576480  48.9295850  46.5320720
  10.6807040  49.7368040  46.3393330  10.4738270  48.2774180  46.6846930
   9.2014520  41.9438790  35.4346680   9.6407800  41.1061220  35.2884500
   9.9142940  42.5768190  35.5210820   7.3109900  46.8834860  39.4027920
   7.7505810  47.6259190  38.9883310   7.2496790  47.1261430  40.3266880
   2.7860870  47.9080690  50.3047940   2.7576300  48.3123640  49.4376370
   2.6225840  46.9791050  50.1419540  12.7831660  33.1981600  33.7487720
  12.4704320  33.2908430  34.6486790  13.5444130  33.7762630  33.6985150
  14.7375690  48.6907790  51.6012110  15.2135410  49.1690680  52.2801190
  15.3582850  48.6225280  50.8757610  14.1408940  45.8820640  48.7612120
  14.2672000  45.6432520  47.8429300  14.1830320  45.0505180  49.2334200
   8.0025680  49.5848640  47.3306930   8.5170350  49.4956650  48.1329360
   7.1594760  49.9308340  47.6234840   9.9780080  49.8703980  36.7590930
   9.8181220  49.5806920  37.6572760   9.8126790  49.0944110  36.2236160
   2.4568460  49.6502510  38.5362550   2.2810940  48.7338050  38.3230350
   1.6024200  50.0089800  38.7760350   9.6806210  47.3791540  35.3188930
   8.9871370  47.3768830  34.6591210  10.4229070  46.9550860  34.8883100
   9.2456140  49.0054250  39.3937420   9.7013090  48.2243630  39.7076040
   9.5848660  49.7161070  39.9378600  13.9932950  37.9353100  49.7261860
  13.3777220  38.4432770  49.1977320  13.6729370  37.0351430  49.6687800
   6.0547270  36.7744990  47.1924050   5.5926640  36.9828010  48.0043990
   5.6525380  35.9604340  46.8894720  11.0551780  37.9953940  48.3220710
  10.2045370  37.6959690  48.6429780  10.8953570  38.2395950  47.4104530
   8.1501490  39.4955690  50.4219500   8.4754900  38.6619440  50.0821730
   8.9381820  40.0184210  50.5697830   4.8836280  33.5287170  36.4694560
   4.2590460  33.5247040  37.1947870   4.7966400  32.6618130  36.0730530
   3.8053360  34.4523800  43.4478330   4.1025690  35.3586630  43.3670350
   4.3538920  33.9642580  42.8337900   8.7889440  39.0373410  37.9160630
   8.1898330  39.7609210  37.7324250   9.3369050  38.9750190  37.1337080
   3.9990890  39.9295620  49.9830250   3.9034490  38.9890350  49.8330650
   4.8422870  40.1510690  49.5878320   7.3954310  37.6736950  39.9463910
   7.7883880  37.9909150  39.1332600   7.7571160  36.7948830  40.0608430
   5.7046480  36.4244260  51.2060770   5.0144800  36.2316460  51.8406860
   6.4478780  36.7078900  51.7385070   7.9809450  40.2642700  44.0414690
   7.2490570  40.7729510  44.3904790   7.5833790  39.4472680  43.7403470
   4.4186840  36.9396900  42.4467180   4.4222900  36.4986850  41.5971720
   5.3137960  37.2614230  42.5539000   4.4806990  37.9408980  35.4373940
   4.6019810  37.8995460  36.3859760   4.0955500  38.8033130  35.2820670
   8.4435360  35.7176380  43.4537630   8.4608100  36.1685030  44.2979480
   8.1950940  34.8182020  43.6671070   3.4928490  40.2510120  34.8357240
   2.9245390  39.8028370  34.2093150   4.2017490  40.6102900  34.3022390
  11.8706110  33.1308560  49.2924010  12.1951880  32.3998220  49.8181990
  11.9062620  32.8122200  48.3905000   4.7194810  40.9998680  44.1932590
   5.0864940  40.5257250  44.9393930   4.5299870  41.8740250  44.5340930
   2.5094180  40.0407320  46.5116800   2.2051250  40.9199300  46.7367160
   3.4640640  40.1007110  46.5474240  11.7963950  43.2433670  42.9010040
  12.5163070  43.7388960  42.5106150  11.5945770  42.5651560  42.2563910
   7.2573890  34.6371630  37.0439430   6.4438500  34.1384800  36.9684740
   7.0635840  35.4769880  36.6275780   7.1782750  43.3142730  48.7879040
   7.1120060  42.3938400  48.5336630   6.5487890  43.4118170  49.5023680
   9.9722280  39.0091280  35.3401590  10.8601900  39.3208510  35.1652930
   9.9427370  38.1363530  34.9482170   5.9682870  45.1814970  36.0189760
   6.3098570  45.9257200  35.5233080   5.1395580  45.4946090  36.3814590
   7.1099480  46.1363300  48.5382840   7.1244020  45.2044260  48.3201750
   6.4024580  46.2223060  49.1772610  12.2436550  40.3203120  34.8081450
  12.1600270  40.7517340  33.9577890  12.9630740  40.7801470  35.2408270
  13.3210690  42.7770640  47.8851420  12.5958880  43.3699420  47.6880810
  13.8486150  42.7694180  47.0864790  13.2723800  47.1745380  37.5363580
  12.6299960  46.5201000  37.8107300  12.8854460  47.5800470  36.7604250
   8.8510280  44.5030810  41.3835270   9.2034100  43.9058940  40.7236640
   7.9672610  44.1775040  41.5543520   4.9373560  45.2628500  38.7905680
   5.6244690  45.8097710  39.1713270   4.1505980  45.8069230  38.8255290
   4.2400770  42.2674530  38.4031040   4.6963550  43.0779780  38.6291230
   3.8888980  41.9497670  39.2349530   6.5433380  47.7780870  45.6323340
   7.1875600  47.9840250  46.3096760   6.9062820  47.0169270  45.1794190
   7.8165460  45.7813220  44.3500790   8.4587690  45.0806380  44.4632960
   8.3414810  46.5611660  44.1697680  11.6621180  46.0661840  34.0739930
  11.4358760  45.3492280  34.6664570  11.2717380  45.8174280  33.2361680
   9.5903080  46.5808120  47.5536850   9.9259320  47.1674810  48.2314770
   8.6703420  46.4500830  47.7834640  11.2437430  43.9833780  35.7354090
  10.9559130  44.4446470  36.5231970  12.0389600  43.5231550  36.0038310
   5.4191660  46.6299450  50.7224910   5.0988530  45.9108690  51.2670600
   4.7450020  47.3054520  50.7960970   3.4605830  47.4759900  35.6658060
   3.4515930  48.2089590  35.0502570   2.5404190  47.2291480  35.7585020
   8.6345260  36.8625610  46.0861710   9.0026080  36.0420820  46.4141280
   7.7743460  36.9227500  46.5017360  12.0007290  35.8182550  36.8949270
  11.3720450  35.9228220  36.1807500  11.5059210  36.0379330  37.6843150
   6.4465430  47.5388140  34.3283250   6.5477410  47.3352130  33.3985230
   5.5467170  47.2846420  34.5331030   3.9691320  38.0968500  38.3107150
   3.2607470  38.5654840  38.7520760   4.2535800  37.4390510  38.9452340
   5.5947250  39.5165200  46.3099680   6.0932500  39.9911020  46.9751530
   5.7370200  38.5928720  46.5169710   8.0006750  34.8219160  39.7502940
   7.8774530  34.8405290  38.8012450   8.9491310  34.8698100  39.8701340
   5.0883540  50.0574460  39.0230920   5.3425040  50.0195850  38.1010290
   4.1396020  49.9307790  39.0159170   2.1726340  36.4053580  35.6857860
   3.0216870  36.8423730  35.6198050   1.8057610  36.7173840  36.5129920
  12.8014110  35.7333160  47.1528070  12.2987710  36.4738560  47.4921880
  13.6170770  36.1217160  46.8364860  11.0936120  40.9766340  40.5989430
  10.1526260  40.9916570  40.7737120  11.4080190  40.1902300  41.0449730
  13.0961700  48.1475190  42.2743690  13.2209120  48.9706360  42.7467500
  13.9627260  47.9365920  41.9267840   3.6781540  49.4136710  33.7686390
   4.4710150  49.7025540  33.3168180   3.1585890  48.9828880  33.0898870
   8.4102140  45.5332340  51.0821810   7.8040300  45.5563940  50.3417560
   8.1056250  44.8015380  51.6189060   9.8402510  49.2612630  49.6931220
  10.7924260  49.1770650  49.6431460   9.6930730  49.9254340  50.3665010
  12.7311710  48.6406840  35.1923130  12.4453220  48.2271980  34.3777310
  12.5331260  49.5694550  35.0723650   4.1958940  44.6340120  33.6328740
   4.0909580  44.0192470  34.3590120   4.0283160  44.1106010  32.8491750
   4.3473260  43.3196920  49.6117970   3.5818930  43.8881920  49.5272640
   4.5289220  43.0273130  48.7186200   7.4361670  43.6960150  34.2370730
   6.8871770  44.1429450  34.8813470   8.0580930  43.1909400  34.7608400
  11.4896610  45.0502250  50.1692990  12.2306080  45.3878010  49.6660450
  10.7269290  45.2194310  49.6162760   3.1036790  42.6551070  36.1336030
   3.5253210  42.4890940  36.9767420   3.2287630  41.8451300  35.6391170
   5.6164430  41.6788680  33.3813130   6.1370090  40.9637700  33.0154280
   6.2632830  42.3174550  33.6813640  10.1642270  43.1017080  48.7048200
  10.5783290  43.2562160  49.5538620   9.2293270  43.2272300  48.8673980
  10.6364440  40.4413240  50.7087350  11.2185210  39.6865560  50.6207830
  10.8126210  40.9720680  49.9318830   4.5197950  34.1583230  46.0531690
   4.0715250  34.1807490  45.2077240   3.8863150  33.7602250  46.6501990
   4.9257500  43.0537560  46.6744130   5.3445610  43.8970290  46.5020370
   4.0066130  43.1909600  46.4450910   7.2621400  40.7853740  48.0581970
   7.3817610  40.1894880  48.7976810   8.1215400  40.8223430  47.6383270
   9.6009300  41.3390930  46.6344480   9.0744520  41.8633550  46.0309620
   9.9440640  41.9718320  47.2654210   1.9995690  38.7284300  33.0794190
   1.7984750  37.8651660  33.4407530   1.8287740  38.6417660  32.1415790
   2.7764920  49.3590570  47.7901860   2.2386010  50.0836630  47.4710560
   3.0298880  48.8820910  46.9999200   4.0290170  37.3275090  49.3157790
   4.6189860  37.0190940  50.0035610   3.2110410  36.8554840  49.4717690
   8.8483600  36.9440900  49.5490810   8.1599120  36.2822440  49.4840800
   9.5689620  36.4979170  49.9939270   9.4784000  33.5392530  35.6081070
   9.7586290  32.6960430  35.9640490   8.7049730  33.7715640  36.1219820
   5.6327130  50.5941780  48.0488510   5.5585830  51.4976920  48.3560880
   4.7305970  50.2753680  48.0210580   4.0163420  34.7719540  34.0528270
   3.6685420  34.0943530  33.4730720   4.2176190  34.3109050  34.8671660
   6.1812460  49.7600290  35.6714870   7.0763250  50.0985260  35.6933630
   6.2130090  49.0379700  35.0439150  13.1606810  48.2903960  48.3781070
  12.5608800  48.3496520  47.6344990  13.2900710  47.3508940  48.5077920
  13.8564720  42.7769260  36.2184980  14.6183630  43.3465910  36.3244670
  13.8719090  42.2096460  36.9893290  14.8624690  43.6319360  41.0626910
  15.2333520  42.8486680  40.6562880  15.5026620  44.3208460  40.8844210
  11.8458450  45.0155940  46.4757230  11.0318290  45.4453100  46.7383020
  12.2532650  45.6274350  45.8626280  10.3059500  36.0948480  34.6711130
  10.7244380  35.9079460  33.8307790   9.9995560  35.2427530  34.9814060
  13.8049230  41.0072620  38.3686930  13.4292830  40.2400550  37.9368220
  13.0752350  41.3895320  38.8561860  13.1948850  40.1544140  48.0026450
  12.9634940  39.9256890  47.1024400  13.4553400  41.0743690  47.9571340
  11.6336920  35.3800570  50.7806150  12.5107100  35.3883970  51.1640150
  11.6457760  34.6431410  50.1698500  13.0800190  39.2330110  41.6694170
  13.6037670  38.7392760  41.0384340  13.6659610  39.3680470  42.4141740
  13.2589910  39.3169980  45.1913720  12.3092620  39.2833520  45.3058710
  13.4402920  40.2270090  44.9563490  12.5700160  38.4903460  37.6086580
  13.0659280  38.2574330  38.3935460  12.3716230  37.6515300  37.1924220
  13.9987320  37.1264410  40.1424260  13.8886600  36.9720450  41.0806530
  14.7594910  36.5985350  39.8999670  12.3453040  33.0658540  46.6007260
  12.9825260  33.6792680  46.9666450  12.4927930  33.1019200  45.6556490
  14.8877590  34.9572330  33.3830400  15.8126900  34.8253510  33.1748690
  14.8653380  35.0365150  34.3366850  14.9616080  35.7282990  36.0087110
  14.1667580  35.6628110  36.5380020  15.1659360  36.6633630  35.9972460
  11.9034500  49.7674540  40.0025500  12.4993570  49.4459110  39.3259920
  12.1612650  49.2946360  40.7938770   3.5103100  47.7552040  45.7525850
   3.2694460  48.0226600  44.8656370   4.4505740  47.9257770  45.8076710
   5.7157520  34.2184730  49.5082360   5.6546410  34.8106560  50.2577770
   6.6557900  34.1110690  49.3632620   8.3532080  33.8754790  49.1474650
   8.9672490  34.1934080  48.4855730   8.8981640  33.3903380  49.7670510
  14.7707260  49.7746420  46.5536490  14.2765540  50.1715290  45.8363620
  14.1620550  49.1495630  46.9473770   9.0940120  32.4386930  45.4743940
   8.2199960  32.7722040  45.2716870   8.9850870  31.9660110  46.2995810
  10.0012100  34.6457800  46.8585660   9.6725460  33.8309560  46.4787390
  10.9494400  34.6027610  46.7351350  12.4546710  50.4169840  43.8323230
  11.9949680  51.1685650  43.4581250  11.8259170  49.6976310  43.7738030
   2.8842430  48.7258080  43.0071360   3.4007450  48.1145440  42.4819620
   3.5339810  49.2286860  43.4982370   5.6237930  49.6166570  43.8340340
   5.9115740  49.3620870  42.9573350   6.1361150  49.0643930  44.4245910
   6.8414940  33.3556770  44.4136850   6.0586730  33.8302270  44.6933610
   6.5477870  32.4511600  44.3050030  11.3936010  34.0579870  42.4585940
  11.8344100  34.0024970  41.6107540  11.1243600  34.9737880  42.5296120
  13.2574580  33.6895110  40.4694760  13.1962980  32.7456330  40.3225780
  14.0366610  33.7975200  41.0148220   4.7269160  35.7743520  39.9252880
   3.9143670  35.4000410  39.5848760   5.2310800  35.0188600  40.2274070
   9.2294140  32.4385970  41.1635950   9.8323510  33.0106180  41.6384470
   8.4887130  33.0025410  40.9409850  12.3728740  32.8407530  36.4376230
  12.5679370  33.7390980  36.7043660  11.5858610  32.6094610  36.9309180
   2.7518340  33.9243440  38.5297930   2.1221080  33.2230750  38.6968060
   2.2123480  34.6847570  38.3131090   5.6910290  50.5382670  51.2008540
   6.6177600  50.3026940  51.2444500   5.6760720  51.3654670  50.7194570
  13.9255350  50.0808240  38.1982790  14.1007540  49.3945980  37.5543710
  13.2276920  50.6055290  37.8059460   2.8773900  33.2027420  50.9650420
   2.5958170  33.7061020  50.2011240   3.2593600  32.4049170  50.5992550
   1.7683000  50.4703080  35.7518100   2.5001820  50.1862360  35.2041990
   2.0276670  50.2316360  36.6417480   9.4789360  32.6181000  51.5430890
   9.3654810  32.9375610  52.4382410  10.2959100  33.0193510  51.2468170
  12.2587850  49.7652530  51.0249580  13.0513170  49.2701760  50.8175540
  12.5521000  50.4442670  51.6325190   8.3847510  40.6373470  21.9065630
   8.3041560  39.7228080  21.6357340   7.9711930  41.1340540  21.2005340
   6.5165550  42.4152490  23.7874900   5.7407650  41.9352930  24.0773470
   7.1678480  41.7358140  23.6131060  10.5372980  46.8212680  22.5674030
  10.0754510  46.0499920  22.8961200  11.3498530  46.8478750  23.0726480
   6.7636290  49.1070690  22.1878020   6.1447730  49.5628190  21.6172460
   7.6188070  49.2622150  21.7867720   5.9574540  45.0909680  23.7945060
   5.8882820  44.1499620  23.6334190   6.7194400  45.1811090  24.3667630
   6.9879710  37.8980060  24.0213990   7.3644530  37.0251940  23.9087660
   6.8899220  38.2338760  23.1304430  10.7703830  35.3930500  20.9542330
  11.5913450  34.9027070  20.9967810  10.8037910  35.9828160  21.7074170
   2.9592450  39.2392060  23.8156610   3.4670670  39.7373030  24.4561630
   3.4905690  38.4627260  23.6395970  15.0603380  37.4097250  27.5185960
  14.3555550  37.7978960  27.0001070  15.3261300  38.1047540  28.1206890
   7.6299640  43.9909930  19.5809930   7.0116910  44.4559380  19.0172650
   8.1422890  44.6837410  19.9979440   2.4931400  43.5185800  26.2593530
   2.1600780  44.1454720  26.9014600   2.6698080  44.0447680  25.4795200
  11.0065310  37.3330880  23.7269870  10.3020880  37.6215770  24.3072980
  11.3677470  38.1430990  23.3669430  12.6228090  46.9506010  25.9897350
  11.9391610  47.6205120  25.9814020  13.1622380  47.1486660  25.2242210
  14.0752230  36.7785670  24.1179080  13.1277140  36.8124650  24.2494510
  14.4002220  37.5924620  24.5028440   4.6071770  33.0782850  22.4135070
   4.9146750  32.5229740  21.6970570   3.6772470  33.2127310  22.2308060
  10.1586830  48.7950140  24.7042530  10.1713990  48.3912430  23.8364790
   9.6062050  49.5697430  24.6003960  11.4532250  45.5166360  19.7932700
  11.3428580  44.5740690  19.9182120  11.4500500  45.8782000  20.6795460
   9.5572270  43.6979980  26.0325140   9.9741060  43.4840090  25.1978600
  10.2812090  43.9552770  26.6033760   6.9952530  41.1431680  19.1495190
   6.0681810  41.0769060  19.3783660   7.1477350  42.0811810  19.0350430
   6.9821610  37.4148680  16.1462350   6.0425280  37.5762640  16.2314810
   7.3004870  38.1334360  15.5998340  13.5034370  42.0967200  26.1241380
  12.6753000  42.1660290  25.6491510  14.0984850  42.6821510  25.6557210
  11.0249820  42.7051980  19.6530440  10.4062240  42.3671530  19.0056740
  11.0074270  42.0611740  20.3609630  10.4676380  38.8836520  27.0696250
  10.0547560  39.7090230  27.3236240   9.7352330  38.2981560  26.8772610
   2.6009170  41.6696420  21.9314920   2.1966170  40.9573670  21.4360820
   2.6872290  41.3249660  22.8202960   3.0690870  45.3563980  24.0954130
   2.7719160  44.7509450  23.4161910   4.0190690  45.3941290  23.9843490
  11.1576480  48.9295850  27.7577230  10.6807040  49.7368040  27.5649840
  10.4738270  48.2774180  27.9103440   9.2014520  41.9438790  16.6603190
   9.6407800  41.1061220  16.5141010   9.9142940  42.5768190  16.7467330
   7.3109900  46.8834860  20.6284430   7.7505810  47.6259190  20.2139820
   7.2496790  47.1261430  21.5523390   2.7860870  47.9080690  31.5304450
   2.7576300  48.3123640  30.6632880   2.6225840  46.9791050  31.3676050
  12.7831660  33.1981600  14.9744230  12.4704320  33.2908430  15.8743300
  13.5444130  33.7762630  14.9241660  14.7375690  48.6907790  32.8268620
  15.2135410  49.1690680  33.5057700  15.3582850  48.6225280  32.1014120
  14.1408940  45.8820640  29.9868630  14.2672000  45.6432520  29.0685810
  14.1830320  45.0505180  30.4590710   8.0025680  49.5848640  28.5563440
   8.5170350  49.4956650  29.3585870   7.1594760  49.9308340  28.8491350
   9.9780080  49.8703980  17.9847440   9.8181220  49.5806920  18.8829270
   9.8126790  49.0944110  17.4492670   2.4568460  49.6502510  19.7619060
   2.2810940  48.7338050  19.5486860   1.6024200  50.0089800  20.0016860
   9.6806210  47.3791540  16.5445440   8.9871370  47.3768830  15.8847720
  10.4229070  46.9550860  16.1139610   9.2456140  49.0054250  20.6193930
   9.7013090  48.2243630  20.9332550   9.5848660  49.7161070  21.1635110
  13.9932950  37.9353100  30.9518370  13.3777220  38.4432770  30.4233830
  13.6729370  37.0351430  30.8944310   6.0547270  36.7744990  28.4180560
   5.5926640  36.9828010  29.2300500   5.6525380  35.9604340  28.1151230
  11.0551780  37.9953940  29.5477220  10.2045370  37.6959690  29.8686290
  10.8953570  38.2395950  28.6361040   8.1501490  39.4955690  31.6476010
   8.4754900  38.6619440  31.3078240   8.9381820  40.0184210  31.7954340
   4.8836280  33.5287170  17.6951070   4.2590460  33.5247040  18.4204380
   4.7966400  32.6618130  17.2987040   3.8053360  34.4523800  24.6734840
   4.1025690  35.3586630  24.5926860   4.3538920  33.9642580  24.0594410
   8.7889440  39.0373410  19.1417140   8.1898330  39.7609210  18.9580760
   9.3369050  38.9750190  18.3593590   3.9990890  39.9295620  31.2086760
   3.9034490  38.9890350  31.0587160   4.8422870  40.1510690  30.8134830
   7.3954310  37.6736950  21.1720420   7.7883880  37.9909150  20.3589110
   7.7571160  36.7948830  21.2864940   5.7046480  36.4244260  32.4317280
   5.0144800  36.2316460  33.0663370   6.4478780  36.7078900  32.9641580
   7.9809450  40.2642700  25.2671200   7.2490570  40.7729510  25.6161300
   7.5833790  39.4472680  24.9659980   4.4186840  36.9396900  23.6723690
   4.4222900  36.4986850  22.8228230   5.3137960  37.2614230  23.7795510
   4.4806990  37.9408980  16.6630450   4.6019810  37.8995460  17.6116270
   4.0955500  38.8033130  16.5077180   8.4435360  35.7176380  24.6794140
   8.4608100  36.1685030  25.5235990   8.1950940  34.8182020  24.8927580
   3.4928490  40.2510120  16.0613750   2.9245390  39.8028370  15.4349660
   4.2017490  40.6102900  15.5278900  11.8706110  33.1308560  30.5180520
  12.1951880  32.3998220  31.0438500  11.9062620  32.8122200  29.6161510
   4.7194810  40.9998680  25.4189100   5.0864940  40.5257250  26.1650440
   4.5299870  41.8740250  25.7597440   2.5094180  40.0407320  27.7373310
   2.2051250  40.9199300  27.9623670   3.4640640  40.1007110  27.7730750
  11.7963950  43.2433670  24.1266550  12.5163070  43.7388960  23.7362660
  11.5945770  42.5651560  23.4820420   7.2573890  34.6371630  18.2695940
   6.4438500  34.1384800  18.1941250   7.0635840  35.4769880  17.8532290
   7.1782750  43.3142730  30.0135550   7.1120060  42.3938400  29.7593140
   6.5487890  43.4118170  30.7280190   9.9722280  39.0091280  16.5658100
  10.8601900  39.3208510  16.3909440   9.9427370  38.1363530  16.1738680
   5.9682870  45.1814970  17.2446270   6.3098570  45.9257200  16.7489590
   5.1395580  45.4946090  17.6071100   7.1099480  46.1363300  29.7639350
   7.1244020  45.2044260  29.5458260   6.4024580  46.2223060  30.4029120
  12.2436550  40.3203120  16.0337960  12.1600270  40.7517340  15.1834400
  12.9630740  40.7801470  16.4664780  13.3210690  42.7770640  29.1107930
  12.5958880  43.3699420  28.9137320  13.8486150  42.7694180  28.3121300
  13.2723800  47.1745380  18.7620090  12.6299960  46.5201000  19.0363810
  12.8854460  47.5800470  17.9860760   8.8510280  44.5030810  22.6091780
   9.2034100  43.9058940  21.9493150   7.9672610  44.1775040  22.7800030
   4.9373560  45.2628500  20.0162190   5.6244690  45.8097710  20.3969780
   4.1505980  45.8069230  20.0511800   4.2400770  42.2674530  19.6287550
   4.6963550  43.0779780  19.8547740   3.8888980  41.9497670  20.4606040
   6.5433380  47.7780870  26.8579850   7.1875600  47.9840250  27.5353270
   6.9062820  47.0169270  26.4050700   7.8165460  45.7813220  25.5757300
   8.4587690  45.0806380  25.6889470   8.3414810  46.5611660  25.3954190
  11.6621180  46.0661840  15.2996440  11.4358760  45.3492280  15.8921080
  11.2717380  45.8174280  14.4618190   9.5903080  46.5808120  28.7793360
   9.9259320  47.1674810  29.4571280   8.6703420  46.4500830  29.0091150
  11.2437430  43.9833780  16.9610600  10.9559130  44.4446470  17.7488480
  12.0389600  43.5231550  17.2294820   5.4191660  46.6299450  31.9481420
   5.0988530  45.9108690  32.4927110   4.7450020  47.3054520  32.0217480
   3.4605830  47.4759900  16.8914570   3.4515930  48.2089590  16.2759080
   2.5404190  47.2291480  16.9841530   8.6345260  36.8625610  27.3118220
   9.0026080  36.0420820  27.6397790   7.7743460  36.9227500  27.7273870
  12.0007290  35.8182550  18.1205780  11.3720450  35.9228220  17.4064010
  11.5059210  36.0379330  18.9099660   6.4465430  47.5388140  15.5539760
   6.5477410  47.3352130  14.6241740   5.5467170  47.2846420  15.7587540
   3.9691320  38.0968500  19.5363660   3.2607470  38.5654840  19.9777270
   4.2535800  37.4390510  20.1708850   5.5947250  39.5165200  27.5356190
   6.0932500  39.9911020  28.2008040   5.7370200  38.5928720  27.7426220
   8.0006750  34.8219160  20.9759450   7.8774530  34.8405290  20.0268960
   8.9491310  34.8698100  21.0957850   5.0883540  50.0574460  20.2487430
   5.3425040  50.0195850  19.3266800   4.1396020  49.9307790  20.2415680
   2.1726340  36.4053580  16.9114370   3.0216870  36.8423730  16.8454560
   1.8057610  36.7173840  17.7386430  12.8014110  35.7333160  28.3784580
  12.2987710  36.4738560  28.7178390  13.6170770  36.1217160  28.0621370
  11.0936120  40.9766340  21.8245940  10.1526260  40.9916570  21.9993630
  11.4080190  40.1902300  22.2706240  13.0961700  48.1475190  23.5000200
  13.2209120  48.9706360  23.9724010  13.9627260  47.9365920  23.1524350
   3.6781540  49.4136710  14.9942900   4.4710150  49.7025540  14.5424690
   3.1585890  48.9828880  14.3155380   8.4102140  45.5332340  32.3078320
   7.8040300  45.5563940  31.5674070   8.1056250  44.8015380  32.8445570
   9.8402510  49.2612630  30.9187730  10.7924260  49.1770650  30.8687970
   9.6930730  49.9254340  31.5921520  12.7311710  48.6406840  16.4179640
  12.4453220  48.2271980  15.6033820  12.5331260  49.5694550  16.2980160
   4.1958940  44.6340120  14.8585250   4.0909580  44.0192470  15.5846630
   4.0283160  44.1106010  14.0748260   4.3473260  43.3196920  30.8374480
   3.5818930  43.8881920  30.7529150   4.5289220  43.0273130  29.9442710
   7.4361670  43.6960150  15.4627240   6.8871770  44.1429450  16.1069980
   8.0580930  43.1909400  15.9864910  11.4896610  45.0502250  31.3949500
  12.2306080  45.3878010  30.8916960  10.7269290  45.2194310  30.8419270
   3.1036790  42.6551070  17.3592540   3.5253210  42.4890940  18.2023930
   3.2287630  41.8451300  16.8647680   5.6164430  41.6788680  14.6069640
   6.1370090  40.9637700  14.2410790   6.2632830  42.3174550  14.9070150
  10.1642270  43.1017080  29.9304710  10.5783290  43.2562160  30.7795130
   9.2293270  43.2272300  30.0930490  10.6364440  40.4413240  31.9343860
  11.2185210  39.6865560  31.8464340  10.8126210  40.9720680  31.1575340
   4.5197950  34.1583230  27.2788200   4.0715250  34.1807490  26.4333750
   3.8863150  33.7602250  27.8758500   4.9257500  43.0537560  27.9000640
   5.3445610  43.8970290  27.7276880   4.0066130  43.1909600  27.6707420
   7.2621400  40.7853740  29.2838480   7.3817610  40.1894880  30.0233320
   8.1215400  40.8223430  28.8639780   9.6009300  41.3390930  27.8600990
   9.0744520  41.8633550  27.2566130   9.9440640  41.9718320  28.4910720
   1.9995690  38.7284300  14.3050700   1.7984750  37.8651660  14.6664040
   1.8287740  38.6417660  13.3672300   2.7764920  49.3590570  29.0158370
   2.2386010  50.0836630  28.6967070   3.0298880  48.8820910  28.2255710
   4.0290170  37.3275090  30.5414300   4.6189860  37.0190940  31.2292120
   3.2110410  36.8554840  30.6974200   8.8483600  36.9440900  30.7747320
   8.1599120  36.2822440  30.7097310   9.5689620  36.4979170  31.2195780
   9.4784000  33.5392530  16.8337580   9.7586290  32.6960430  17.1897000
   8.7049730  33.7715640  17.3476330   5.6327130  50.5941780  29.2745020
   5.5585830  51.4976920  29.5817390   4.7305970  50.2753680  29.2467090
   4.0163420  34.7719540  15.2784780   3.6685420  34.0943530  14.6987230
   4.2176190  34.3109050  16.0928170   6.1812460  49.7600290  16.8971380
   7.0763250  50.0985260  16.9190140   6.2130090  49.0379700  16.2695660
  13.1606810  48.2903960  29.6037580  12.5608800  48.3496520  28.8601500
  13.2900710  47.3508940  29.7334430  14.4008260  46.0321780  14.9407290
  13.5701220  46.0998430  15.4114520  14.5780090  46.9225900  14.6374150
  13.8564720  42.7769260  17.4441490  14.6183630  43.3465910  17.5501180
  13.8719090  42.2096460  18.2149800  14.8624690  43.6319360  22.2883420
  15.2333520  42.8486680  21.8819390  15.5026620  44.3208460  22.1100720
  11.8458450  45.0155940  27.7013740  11.0318290  45.4453100  27.9639530
  12.2532650  45.6274350  27.0882790  13.9083890  43.0703630  14.6014010
  14.1832730  43.9782510  14.4733230  13.7194630  43.0066160  15.5376000
  10.3059500  36.0948480  15.8967640  10.7244380  35.9079460  15.0564300
   9.9995560  35.2427530  16.2070570  13.8049230  41.0072620  19.5943440
  13.4292830  40.2400550  19.1624730  13.0752350  41.3895320  20.0818370
  13.1948850  40.1544140  29.2282960  12.9634940  39.9256890  28.3280910
  13.4553400  41.0743690  29.1827850  11.6336920  35.3800570  32.0062660
  12.5107100  35.3883970  32.3896660  11.6457760  34.6431410  31.3955010
  13.0800190  39.2330110  22.8950680  13.6037670  38.7392760  22.2640850
  13.6659610  39.3680470  23.6398250  13.2589910  39.3169980  26.4170230
  12.3092620  39.2833520  26.5315220  13.4402920  40.2270090  26.1820000
  12.5700160  38.4903460  18.8343090  13.0659280  38.2574330  19.6191970
  12.3716230  37.6515300  18.4180730  13.9987320  37.1264410  21.3680770
  13.8886600  36.9720450  22.3063040  14.7594910  36.5985350  21.1256180
  12.3453040  33.0658540  27.8263770  12.9825260  33.6792680  28.1922960
  12.4927930  33.1019200  26.8813000  14.8877590  34.9572330  14.6086910
  15.8126900  34.8253510  14.4005200  14.8653380  35.0365150  15.5623360
  14.9616080  35.7282990  17.2343620  14.1667580  35.6628110  17.7636530
  15.1659360  36.6633630  17.2228970  11.9034500  49.7674540  21.2282010
  12.4993570  49.4459110  20.5516430  12.1612650  49.2946360  22.0195280
   3.5103100  47.7552040  26.9782360   3.2694460  48.0226600  26.0912880
   4.4505740  47.9257770  27.0333220   5.7157520  34.2184730  30.7338870
   5.6546410  34.8106560  31.4834280   6.6557900  34.1110690  30.5889130
   8.3532080  33.8754790  30.3731160   8.9672490  34.1934080  29.7112240
   8.8981640  33.3903380  30.9927020  14.7707260  49.7746420  27.7793000
  14.2765540  50.1715290  27.0620130  14.1620550  49.1495630  28.1730280
   9.0940120  32.4386930  26.7000450   8.2199960  32.7722040  26.4973380
   8.9850870  31.9660110  27.5252320  10.0012100  34.6457800  28.0842170
   9.6725460  33.8309560  27.7043900  10.9494400  34.6027610  27.9607860
  12.4546710  50.4169840  25.0579740  11.9949680  51.1685650  24.6837760
  11.8259170  49.6976310  24.9994540   2.8842430  48.7258080  24.2327870
   3.4007450  48.1145440  23.7076130   3.5339810  49.2286860  24.7238880
   5.6237930  49.6166570  25.0596850   5.9115740  49.3620870  24.1829860
   6.1361150  49.0643930  25.6502420   6.8414940  33.3556770  25.6393360
   6.0586730  33.8302270  25.9190120   6.5477870  32.4511600  25.5306540
  11.3936010  34.0579870  23.6842450  11.8344100  34.0024970  22.8364050
  11.1243600  34.9737880  23.7552630  13.2574580  33.6895110  21.6951270
  13.1962980  32.7456330  21.5482290  14.0366610  33.7975200  22.2404730
   4.7269160  35.7743520  21.1509390   3.9143670  35.4000410  20.8105270
   5.2310800  35.0188600  21.4530580   9.2294140  32.4385970  22.3892460
   9.8323510  33.0106180  22.8640980   8.4887130  33.0025410  22.1666360
  12.3728740  32.8407530  17.6632740  12.5679370  33.7390980  17.9300170
  11.5858610  32.6094610  18.1565690   2.7518340  33.9243440  19.7554440
   2.1221080  33.2230750  19.9224570   2.2123480  34.6847570  19.5387600
   5.6910290  50.5382670  32.4265050   6.6177600  50.3026940  32.4701010
   5.6760720  51.3654670  31.9451080  13.9255350  50.0808240  19.4239300
  14.1007540  49.3945980  18.7800220  13.2276920  50.6055290  19.0315970
   2.8773900  33.2027420  32.1906930   2.5958170  33.7061020  31.4267750
   3.2593600  32.4049170  31.8249060   1.7683000  50.4703080  16.9774610
   2.5001820  50.1862360  16.4298500   2.0276670  50.2316360  17.8673990
   9.4789360  32.6181000  32.7687400   9.3654810  32.9375610  33.6638920
  10.2959100  33.0193510  32.4724680  12.2587850  49.7652530  32.2506090
  13.0513170  49.2701760  32.0432050  12.5521000  50.4442670  32.8581700
   8.3847510  40.6373470   3.1322140   8.3041560  39.7228080   2.8613850
   7.9711930  41.1340540   2.4261850   6.5165550  42.4152490   5.0131410
   5.7407650  41.9352930   5.3029980   7.1678480  41.7358140   4.8387570
  10.5372980  46.8212680   3.7930540  10.0754510  46.0499920   4.1217710
  11.3498530  46.8478750   4.2982990   6.7636290  49.1070690   3.4134530
   6.1447730  49.5628190   2.8428970   7.6188070  49.2622150   3.0124230
   5.9574540  45.0909680   5.0201570   5.8882820  44.1499620   4.8590700
   6.7194400  45.1811090   5.5924140   6.9879710  37.8980060   5.2470500
   7.3644530  37.0251940   5.1344170   6.8899220  38.2338760   4.3560940
  10.7703830  35.3930500   2.1798840  11.5913450  34.9027070   2.2224320
  10.8037910  35.9828160   2.9330680   2.9592450  39.2392060   5.0413120
   3.4670670  39.7373030   5.6818140   3.4905690  38.4627260   4.8652480
  15.0603380  37.4097250   8.7442470  14.3555550  37.7978960   8.2257580
  15.3261300  38.1047540   9.3463400   2.4931400  43.5185800   7.4850040
   2.1600780  44.1454720   8.1271110   2.6698080  44.0447680   6.7051710
  11.0065310  37.3330880   4.9526380  10.3020880  37.6215770   5.5329490
  11.3677470  38.1430990   4.5925940  12.6228090  46.9506010   7.2153860
  11.9391610  47.6205120   7.2070530  13.1622380  47.1486660   6.4498720
  14.0752230  36.7785670   5.3435590  13.1277140  36.8124650   5.4751020
  14.4002220  37.5924620   5.7284950   4.6071770  33.0782850   3.6391580
   4.9146750  32.5229740   2.9227080   3.6772470  33.2127310   3.4564570
  10.1586830  48.7950140   5.9299040  10.1713990  48.3912430   5.0621300
   9.6062050  49.5697430   5.8260470   9.5572270  43.6979980   7.2581650
   9.9741060  43.4840090   6.4235110  10.2812090  43.9552770   7.8290270
  13.5034370  42.0967200   7.3497890  12.6753000  42.1660290   6.8748020
  14.0984850  42.6821510   6.8813720  10.4676380  38.8836520   8.2952760
  10.0547560  39.7090230   8.5492750   9.7352330  38.2981560   8.1029120
   2.6009170  41.6696420   3.1571430   2.1966170  40.9573670   2.6617330
   2.6872290  41.3249660   4.0459470   3.0690870  45.3563980   5.3210640
   2.7719160  44.7509450   4.6418420   4.0190690  45.3941290   5.2100000
  11.1576480  48.9295850   8.9833740  10.6807040  49.7368040   8.7906350
  10.4738270  48.2774180   9.1359950   7.3109900  46.8834860   1.8540940
   7.7505810  47.6259190   1.4396330   7.2496790  47.1261430   2.7779900
   2.7860870  47.9080690  12.7560960   2.7576300  48.3123640  11.8889390
   2.6225840  46.9791050  12.5932560  14.7375690  48.6907790  14.0525130
  15.2135410  49.1690680  14.7314210  15.3582850  48.6225280  13.3270630
  14.1408940  45.8820640  11.2125140  14.2672000  45.6432520  10.2942320
  14.1830320  45.0505180  11.6847220   8.0025680  49.5848640   9.7819950
   8.5170350  49.4956650  10.5842380   7.1594760  49.9308340  10.0747860
   9.2456140  49.0054250   1.8450440   9.7013090  48.2243630   2.1589060
   9.5848660  49.7161070   2.3891620  13.9932950  37.9353100  12.1774880
  13.3777220  38.4432770  11.6490340  13.6729370  37.0351430  12.1200820
   6.0547270  36.7744990   9.6437070   5.5926640  36.9828010  10.4557010
   5.6525380  35.9604340   9.3407740  11.0551780  37.9953940  10.7733730
  10.2045370  37.6959690  11.0942800  10.8953570  38.2395950   9.8617550
   8.1501490  39.4955690  12.8732520   8.4754900  38.6619440  12.5334750
   8.9381820  40.0184210  13.0210850   3.8053360  34.4523800   5.8991350
   4.1025690  35.3586630   5.8183370   4.3538920  33.9642580   5.2850920
   3.9990890  39.9295620  12.4343270   3.9034490  38.9890350  12.2843670
   4.8422870  40.1510690  12.0391340   7.3954310  37.6736950   2.3976930
   7.7883880  37.9909150   1.5845620   7.7571160  36.7948830   2.5121450
   5.7046480  36.4244260  13.6573790   5.0144800  36.2316460  14.2919880
   6.4478780  36.7078900  14.1898090   7.9809450  40.2642700   6.4927710
   7.2490570  40.7729510   6.8417810   7.5833790  39.4472680   6.1916490
   4.4186840  36.9396900   4.8980200   4.4222900  36.4986850   4.0484740
   5.3137960  37.2614230   5.0052020   8.4435360  35.7176380   5.9050650
   8.4608100  36.1685030   6.7492500   8.1950940  34.8182020   6.1184090
  11.8706110  33.1308560  11.7437030  12.1951880  32.3998220  12.2695010
  11.9062620  32.8122200  10.8418020   4.7194810  40.9998680   6.6445610
   5.0864940  40.5257250   7.3906950   4.5299870  41.8740250   6.9853950
   2.5094180  40.0407320   8.9629820   2.2051250  40.9199300   9.1880180
   3.4640640  40.1007110   8.9987260  11.7963950  43.2433670   5.3523060
  12.5163070  43.7388960   4.9619170  11.5945770  42.5651560   4.7076930
   7.1782750  43.3142730  11.2392060   7.1120060  42.3938400  10.9849650
   6.5487890  43.4118170  11.9536700   7.1099480  46.1363300  10.9895860
   7.1244020  45.2044260  10.7714770   6.4024580  46.2223060  11.6285630
  13.3210690  42.7770640  10.3364440  12.5958880  43.3699420  10.1393830
  13.8486150  42.7694180   9.5377810   8.8510280  44.5030810   3.8348290
   9.2034100  43.9058940   3.1749660   7.9672610  44.1775040   4.0056540
   6.5433380  47.7780870   8.0836360   7.1875600  47.9840250   8.7609780
   6.9062820  47.0169270   7.6307210   7.8165460  45.7813220   6.8013810
   8.4587690  45.0806380   6.9145980   8.3414810  46.5611660   6.6210700
   9.5903080  46.5808120  10.0049870   9.9259320  47.1674810  10.6827790
   8.6703420  46.4500830  10.2347660   5.4191660  46.6299450  13.1737930
   5.0988530  45.9108690  13.7183620   4.7450020  47.3054520  13.2473990
   8.6345260  36.8625610   8.5374730   9.0026080  36.0420820   8.8654300
   7.7743460  36.9227500   8.9530380   5.5947250  39.5165200   8.7612700
   6.0932500  39.9911020   9.4264550   5.7370200  38.5928720   8.9682730
  12.8014110  35.7333160   9.6041090  12.2987710  36.4738560   9.9434900
  13.6170770  36.1217160   9.2877880  11.0936120  40.9766340   3.0502450
  10.1526260  40.9916570   3.2250140  11.4080190  40.1902300   3.4962750
  13.0961700  48.1475190   4.7256710  13.2209120  48.9706360   5.1980520
  13.9627260  47.9365920   4.3780860   8.4102140  45.5332340  13.5334830
   7.8040300  45.5563940  12.7930580   8.1056250  44.8015380  14.0702080
   9.8402510  49.2612630  12.1444240  10.7924260  49.1770650  12.0944480
   9.6930730  49.9254340  12.8178030   4.3473260  43.3196920  12.0630990
   3.5818930  43.8881920  11.9785660   4.5289220  43.0273130  11.1699220
  11.4896610  45.0502250  12.6206010  12.2306080  45.3878010  12.1173470
  10.7269290  45.2194310  12.0675780  10.1642270  43.1017080  11.1561220
  10.5783290  43.2562160  12.0051640   9.2293270  43.2272300  11.3187000
  10.6364440  40.4413240  13.1600370  11.2185210  39.6865560  13.0720850
  10.8126210  40.9720680  12.3831850   4.5197950  34.1583230   8.5044710
   4.0715250  34.1807490   7.6590260   3.8863150  33.7602250   9.1015010
   4.9257500  43.0537560   9.1257150   5.3445610  43.8970290   8.9533390
   4.0066130  43.1909600   8.8963930   7.2621400  40.7853740  10.5094990
   7.3817610  40.1894880  11.2489830   8.1215400  40.8223430  10.0896290
   9.6009300  41.3390930   9.0857500   9.0744520  41.8633550   8.4822640
   9.9440640  41.9718320   9.7167230   2.7764920  49.3590570  10.2414880
   2.2386010  50.0836630   9.9223580   3.0298880  48.8820910   9.4512220
   4.0290170  37.3275090  11.7670810   4.6189860  37.0190940  12.4548630
   3.2110410  36.8554840  11.9230710   8.8483600  36.9440900  12.0003830
   8.1599120  36.2822440  11.9353820   9.5689620  36.4979170  12.4452290
   5.6327130  50.5941780  10.5001530   5.5585830  51.4976920  10.8073900
   4.7305970  50.2753680  10.4723600  13.1606810  48.2903960  10.8294090
  12.5608800  48.3496520  10.0858010  13.2900710  47.3508940  10.9590940
  14.8624690  43.6319360   3.5139930  15.2333520  42.8486680   3.1075900
  15.5026620  44.3208460   3.3357230  11.8458450  45.0155940   8.9270250
  11.0318290  45.4453100   9.1896040  12.2532650  45.6274350   8.3139300
  13.1948850  40.1544140  10.4539470  12.9634940  39.9256890   9.5537420
  13.4553400  41.0743690  10.4084360  11.6336920  35.3800570  13.2319170
  12.5107100  35.3883970  13.6153170  11.6457760  34.6431410  12.6211520
  13.0800190  39.2330110   4.1207190  13.6037670  38.7392760   3.4897360
  13.6659610  39.3680470   4.8654760  13.2589910  39.3169980   7.6426740
  12.3092620  39.2833520   7.7571730  13.4402920  40.2270090   7.4076510
  13.9987320  37.1264410   2.5937280  13.8886600  36.9720450   3.5319550
  14.7594910  36.5985350   2.3512690  12.3453040  33.0658540   9.0520280
  12.9825260  33.6792680   9.4179470  12.4927930  33.1019200   8.1069510
  11.9034500  49.7674540   2.4538520  12.4993570  49.4459110   1.7772940
  12.1612650  49.2946360   3.2451790   3.5103100  47.7552040   8.2038870
   3.2694460  48.0226600   7.3169390   4.4505740  47.9257770   8.2589730
   5.7157520  34.2184730  11.9595380   5.6546410  34.8106560  12.7090790
   6.6557900  34.1110690  11.8145640   8.3532080  33.8754790  11.5987670
   8.9672490  34.1934080  10.9368750   8.8981640  33.3903380  12.2183530
  14.7707260  49.7746420   9.0049510  14.2765540  50.1715290   8.2876640
  14.1620550  49.1495630   9.3986790   9.0940120  32.4386930   7.9256960
   8.2199960  32.7722040   7.7229890   8.9850870  31.9660110   8.7508830
  10.0012100  34.6457800   9.3098680   9.6725460  33.8309560   8.9300410
  10.9494400  34.6027610   9.1864370  12.4546710  50.4169840   6.2836250
  11.9949680  51.1685650   5.9094270  11.8259170  49.6976310   6.2251050
   2.8842430  48.7258080   5.4584380   3.4007450  48.1145440   4.9332640
   3.5339810  49.2286860   5.9495390   5.6237930  49.6166570   6.2853360
   5.9115740  49.3620870   5.4086370   6.1361150  49.0643930   6.8758930
   6.8414940  33.3556770   6.8649870   6.0586730  33.8302270   7.1446630
   6.5477870  32.4511600   6.7563050  11.3936010  34.0579870   4.9098960
  11.8344100  34.0024970   4.0620560  11.1243600  34.9737880   4.9809140
  13.2574580  33.6895110   2.9207780  13.1962980  32.7456330   2.7738800
  14.0366610  33.7975200   3.4661240   4.7269160  35.7743520   2.3765900
   3.9143670  35.4000410   2.0361780   5.2310800  35.0188600   2.6787090
   9.2294140  32.4385970   3.6148970   9.8323510  33.0106180   4.0897490
   8.4887130  33.0025410   3.3922870   5.6910290  50.5382670  13.6521560
   6.6177600  50.3026940  13.6957520   5.6760720  51.3654670  13.1707590
   2.8773900  33.2027420  13.4163440   2.5958170  33.7061020  12.6524260
   3.2593600  32.4049170  13.0505570   9.4789360  32.6181000  13.9943910
   9.3654810  32.9375610  14.8895430  10.2959100  33.0193510  13.6981190
  12.2587850  49.7652530  13.4762600  13.0513170  49.2701760  13.2688560
  12.5521000  50.4442670  14.0838210   8.3847510  21.8629980  78.2296100
   8.3041560  20.9484590  77.9587810   7.9711930  22.3597050  77.5235810
   6.5165550  23.6409000  80.1105370   5.7407650  23.1609440  80.4003940
   7.1678480  22.9614650  79.9361530  10.5372980  28.0469190  78.8904500
  10.0754510  27.2756430  79.2191670  11.3498530  28.0735260  79.3956950
   6.7636290  30.3327200  78.5108490   6.1447730  30.7884700  77.9402930
   7.6188070  30.4878660  78.1098190   5.9574540  26.3166190  80.1175530
   5.8882820  25.3756130  79.9564660   6.7194400  26.4067600  80.6898100
   6.9879710  19.1236570  80.3444460   7.3644530  18.2508450  80.2318130
   6.8899220  19.4595270  79.4534900  10.7703830  16.6187010  77.2772800
  11.5913450  16.1283580  77.3198280  10.8037910  17.2084670  78.0304640
   2.9592450  20.4648570  80.1387080   3.4670670  20.9629540  80.7792100
   3.4905690  19.6883770  79.9626440   7.6299640  25.2166440  75.9040400
   7.0116910  25.6815890  75.3403120   8.1422890  25.9093920  76.3209910
   2.4931400  24.7442310  82.5824000   2.1600780  25.3711230  83.2245070
   2.6698080  25.2704190  81.8025670  11.0065310  18.5587390  80.0500340
  10.3020880  18.8472280  80.6303450  11.3677470  19.3687500  79.6899900
  12.6228090  28.1762520  82.3127820  11.9391610  28.8461630  82.3044490
  13.1622380  28.3743170  81.5472680  14.0752230  18.0042180  80.4409550
  13.1277140  18.0381160  80.5724980  14.4002220  18.8181130  80.8258910
   4.6071770  14.3039360  78.7365540   4.9146750  13.7486250  78.0201040
   3.6772470  14.4383820  78.5538530  10.1586830  30.0206650  81.0273000
  10.1713990  29.6168940  80.1595260   9.6062050  30.7953940  80.9234430
  11.4532250  26.7422870  76.1163170  11.3428580  25.7997200  76.2412590
  11.4500500  27.1038510  77.0025930   9.5572270  24.9236490  82.3555610
   9.9741060  24.7096600  81.5209070  10.2812090  25.1809280  82.9264230
   6.9952530  22.3688190  75.4725660   6.0681810  22.3025570  75.7014130
   7.1477350  23.3068320  75.3580900   6.9821610  18.6405190  72.4692820
   6.0425280  18.8019150  72.5545280   7.3004870  19.3590870  71.9228810
  13.5034370  23.3223710  82.4471850  12.6753000  23.3916800  81.9721980
  14.0984850  23.9078020  81.9787680  11.0249820  23.9308490  75.9760910
  10.4062240  23.5928040  75.3287210  11.0074270  23.2868250  76.6840100
   2.6009170  22.8952930  78.2545390   2.1966170  22.1830180  77.7591290
   2.6872290  22.5506170  79.1433430   3.0690870  26.5820490  80.4184600
   2.7719160  25.9765960  79.7392380   4.0190690  26.6197800  80.3073960
   9.2014520  23.1695300  72.9833660   9.6407800  22.3317730  72.8371480
   9.9142940  23.8024700  73.0697800   7.3109900  28.1091370  76.9514900
   7.7505810  28.8515700  76.5370290   7.2496790  28.3517940  77.8753860
  12.7831660  14.4238110  71.2974700  12.4704320  14.5164940  72.1973770
  13.5444130  15.0019140  71.2472130   9.9780080  31.0960490  74.3077910
   9.8181220  30.8063430  75.2059740   9.8126790  30.3200620  73.7723140
   2.4568460  30.8759020  76.0849530   2.2810940  29.9594560  75.8717330
   1.6024200  31.2346310  76.3247330   9.6806210  28.6048050  72.8675910
   8.9871370  28.6025340  72.2078190  10.4229070  28.1807370  72.4370080
   9.2456140  30.2310760  76.9424400   9.7013090  29.4500140  77.2563020
   9.5848660  30.9417580  77.4865580   4.8836280  14.7543680  74.0181540
   4.2590460  14.7503550  74.7434850   4.7966400  13.8874640  73.6217510
   3.8053360  15.6780310  80.9965310   4.1025690  16.5843140  80.9157330
   4.3538920  15.1899090  80.3824880   8.7889440  20.2629920  75.4647610
   8.1898330  20.9865720  75.2811230   9.3369050  20.2006700  74.6824060
   7.3954310  18.8993460  77.4950890   7.7883880  19.2165660  76.6819580
   7.7571160  18.0205340  77.6095410   7.9809450  21.4899210  81.5901670
   7.2490570  21.9986020  81.9391770   7.5833790  20.6729190  81.2890450
   4.4186840  18.1653410  79.9954160   4.4222900  17.7243360  79.1458700
   5.3137960  18.4870740  80.1025980   4.4806990  19.1665490  72.9860920
   4.6019810  19.1251970  73.9346740   4.0955500  20.0289640  72.8307650
   8.4435360  16.9432890  81.0024610   8.4608100  17.3941540  81.8466460
   8.1950940  16.0438530  81.2158050   3.4928490  21.4766630  72.3844220
   2.9245390  21.0284880  71.7580130   4.2017490  21.8359410  71.8509370
   4.7194810  22.2255190  81.7419570   5.0864940  21.7513760  82.4880910
   4.5299870  23.0996760  82.0827910  11.7963950  24.4690180  80.4497020
  12.5163070  24.9645470  80.0593130  11.5945770  23.7908070  79.8050890
   7.2573890  15.8628140  74.5926410   6.4438500  15.3641310  74.5171720
   7.0635840  16.7026390  74.1762760   9.9722280  20.2347790  72.8888570
  10.8601900  20.5465020  72.7139910   9.9427370  19.3620040  72.4969150
   5.9682870  26.4071480  73.5676740   6.3098570  27.1513710  73.0720060
   5.1395580  26.7202600  73.9301570  12.2436550  21.5459630  72.3568430
  12.1600270  21.9773850  71.5064870  12.9630740  22.0057980  72.7895250
  13.2723800  28.4001890  75.0850560  12.6299960  27.7457510  75.3594280
  12.8854460  28.8056980  74.3091230   8.8510280  25.7287320  78.9322250
   9.2034100  25.1315450  78.2723620   7.9672610  25.4031550  79.1030500
   4.9373560  26.4885010  76.3392660   5.6244690  27.0354220  76.7200250
   4.1505980  27.0325740  76.3742270   4.2400770  23.4931040  75.9518020
   4.6963550  24.3036290  76.1778210   3.8888980  23.1754180  76.7836510
   7.8165460  27.0069730  81.8987770   8.4587690  26.3062890  82.0119940
   8.3414810  27.7868170  81.7184660  11.6621180  27.2918350  71.6226910
  11.4358760  26.5748790  72.2151550  11.2717380  27.0430790  70.7848660
  11.2437430  25.2090290  73.2841070  10.9559130  25.6702980  74.0718950
  12.0389600  24.7488060  73.5525290   3.4605830  28.7016410  73.2145040
   3.4515930  29.4346100  72.5989550   2.5404190  28.4547990  73.3072000
  12.0007290  17.0439060  74.4436250  11.3720450  17.1484730  73.7294480
  11.5059210  17.2635840  75.2330130   6.4465430  28.7644650  71.8770230
   6.5477410  28.5608640  70.9472210   5.5467170  28.5102930  72.0818010
   3.9691320  19.3225010  75.8594130   3.2607470  19.7911350  76.3007740
   4.2535800  18.6647020  76.4939320   8.0006750  16.0475670  77.2989920
   7.8774530  16.0661800  76.3499430   8.9491310  16.0954610  77.4188320
   5.0883540  31.2830970  76.5717900   5.3425040  31.2452360  75.6497270
   4.1396020  31.1564300  76.5646150   2.1726340  17.6310090  73.2344840
   3.0216870  18.0680240  73.1685030   1.8057610  17.9430350  74.0616900
  11.0936120  22.2022850  78.1476410  10.1526260  22.2173080  78.3224100
  11.4080190  21.4158810  78.5936710  13.0961700  29.3731700  79.8230670
  13.2209120  30.1962870  80.2954480  13.9627260  29.1622430  79.4754820
   3.6781540  30.6393220  71.3173370   4.4710150  30.9282050  70.8655160
   3.1585890  30.2085390  70.6385850  12.7311710  29.8663350  72.7410110
  12.4453220  29.4528490  71.9264290  12.5331260  30.7951060  72.6210630
   4.1958940  25.8596630  71.1815720   4.0909580  25.2448980  71.9077100
   4.0283160  25.3362520  70.3978730   7.4361670  24.9216660  71.7857710
   6.8871770  25.3685960  72.4300450   8.0580930  24.4165910  72.3095380
   3.1036790  23.8807580  73.6823010   3.5253210  23.7147450  74.5254400
   3.2287630  23.0707810  73.1878150   5.6164430  22.9045190  70.9300110
   6.1370090  22.1894210  70.5641260   6.2632830  23.5431060  71.2300620
   1.9995690  19.9540810  70.6281170   1.7984750  19.0908170  70.9894510
   1.8287740  19.8674170  69.6902770   9.4784000  14.7649040  73.1568050
   9.7586290  13.9216940  73.5127470   8.7049730  14.9972150  73.6706800
   4.0163420  15.9976050  71.6015250   3.6685420  15.3200040  71.0217700
   4.2176190  15.5365560  72.4158640   6.1812460  30.9856800  73.2201850
   7.0763250  31.3241770  73.2420610   6.2130090  30.2636210  72.5926130
  14.4008260  27.2578290  71.2637760  13.5701220  27.3254940  71.7344990
  14.5780090  28.1482410  70.9604620  13.8564720  24.0025770  73.7671960
  14.6183630  24.5722420  73.8731650  13.8719090  23.4352970  74.5380270
  14.8624690  24.8575870  78.6113890  15.2333520  24.0743190  78.2049860
  15.5026620  25.5464970  78.4331190  13.9083890  24.2960140  70.9244480
  14.1832730  25.2039020  70.7963700  13.7194630  24.2322670  71.8606470
  10.3059500  17.3204990  72.2198110  10.7244380  17.1335970  71.3794770
   9.9995560  16.4684040  72.5301040  13.8049230  22.2329130  75.9173910
  13.4292830  21.4657060  75.4855200  13.0752350  22.6151830  76.4048840
  13.0800190  20.4586620  79.2181150  13.6037670  19.9649270  78.5871320
  13.6659610  20.5936980  79.9628720  13.2589910  20.5426490  82.7400700
  12.3092620  20.5090030  82.8545690  13.4402920  21.4526600  82.5050470
  12.5700160  19.7159970  75.1573560  13.0659280  19.4830840  75.9422440
  12.3716230  18.8771810  74.7411200  13.9987320  18.3520920  77.6911240
  13.8886600  18.1976960  78.6293510  14.7594910  17.8241860  77.4486650
  14.8877590  16.1828840  70.9317380  15.8126900  16.0510020  70.7235670
  14.8653380  16.2621660  71.8853830  14.9616080  16.9539500  73.5574090
  14.1667580  16.8884620  74.0867000  15.1659360  17.8890140  73.5459440
  11.9034500  30.9931050  77.5512480  12.4993570  30.6715620  76.8746900
  12.1612650  30.5202870  78.3425750  12.4546710  31.6426350  81.3810210
  11.9949680  32.3942160  81.0068230  11.8259170  30.9232820  81.3225010
   2.8842430  29.9514590  80.5558340   3.4007450  29.3401950  80.0306600
   3.5339810  30.4543370  81.0469350   5.6237930  30.8423080  81.3827320
   5.9115740  30.5877380  80.5060330   6.1361150  30.2900440  81.9732890
   6.8414940  14.5813280  81.9623830   6.0586730  15.0558780  82.2420590
   6.5477870  13.6768110  81.8537010  11.3936010  15.2836380  80.0072920
  11.8344100  15.2281480  79.1594520  11.1243600  16.1994390  80.0783100
  13.2574580  14.9151620  78.0181740  13.1962980  13.9712840  77.8712760
  14.0366610  15.0231710  78.5635200   4.7269160  17.0000030  77.4739860
   3.9143670  16.6256920  77.1335740   5.2310800  16.2445110  77.7761050
   9.2294140  13.6642480  78.7122930   9.8323510  14.2362690  79.1871450
   8.4887130  14.2281920  78.4896830  12.3728740  14.0664040  73.9863210
  12.5679370  14.9647490  74.2530640  11.5858610  13.8351120  74.4796160
   2.7518340  15.1499950  76.0784910   2.1221080  14.4487260  76.2455040
   2.2123480  15.9104080  75.8618070  13.9255350  31.3064750  75.7469770
  14.1007540  30.6202490  75.1030690  13.2276920  31.8311800  75.3546440
   1.7683000  31.6959590  73.3005080   2.5001820  31.4118870  72.7528970
   2.0276670  31.4572870  74.1904460   8.3847510  21.8629980  59.4552610
   8.3041560  20.9484590  59.1844320   7.9711930  22.3597050  58.7492320
   6.5165550  23.6409000  61.3361880   5.7407650  23.1609440  61.6260450
   7.1678480  22.9614650  61.1618040  10.5372980  28.0469190  60.1161010
  10.0754510  27.2756430  60.4448180  11.3498530  28.0735260  60.6213460
   6.7636290  30.3327200  59.7365000   6.1447730  30.7884700  59.1659440
   7.6188070  30.4878660  59.3354700   5.9574540  26.3166190  61.3432040
   5.8882820  25.3756130  61.1821170   6.7194400  26.4067600  61.9154610
   6.9879710  19.1236570  61.5700970   7.3644530  18.2508450  61.4574640
   6.8899220  19.4595270  60.6791410  10.7703830  16.6187010  58.5029310
  11.5913450  16.1283580  58.5454790  10.8037910  17.2084670  59.2561150
   2.9592450  20.4648570  61.3643590   3.4670670  20.9629540  62.0048610
   3.4905690  19.6883770  61.1882950  15.0603380  18.6353760  65.0672940
  14.3555550  19.0235470  64.5488050  15.3261300  19.3304050  65.6693870
   7.6299640  25.2166440  57.1296910   7.0116910  25.6815890  56.5659630
   8.1422890  25.9093920  57.5466420   2.4931400  24.7442310  63.8080510
   2.1600780  25.3711230  64.4501580   2.6698080  25.2704190  63.0282180
  11.0065310  18.5587390  61.2756850  10.3020880  18.8472280  61.8559960
  11.3677470  19.3687500  60.9156410  12.6228090  28.1762520  63.5384330
  11.9391610  28.8461630  63.5301000  13.1622380  28.3743170  62.7729190
  14.0752230  18.0042180  61.6666060  13.1277140  18.0381160  61.7981490
  14.4002220  18.8181130  62.0515420   4.6071770  14.3039360  59.9622050
   4.9146750  13.7486250  59.2457550   3.6772470  14.4383820  59.7795040
  10.1586830  30.0206650  62.2529510  10.1713990  29.6168940  61.3851770
   9.6062050  30.7953940  62.1490940  11.4532250  26.7422870  57.3419680
  11.3428580  25.7997200  57.4669100  11.4500500  27.1038510  58.2282440
   9.5572270  24.9236490  63.5812120   9.9741060  24.7096600  62.7465580
  10.2812090  25.1809280  64.1520740   6.9952530  22.3688190  56.6982170
   6.0681810  22.3025570  56.9270640   7.1477350  23.3068320  56.5837410
   6.9821610  18.6405190  53.6949330   6.0425280  18.8019150  53.7801790
   7.3004870  19.3590870  53.1485320  13.5034370  23.3223710  63.6728360
  12.6753000  23.3916800  63.1978490  14.0984850  23.9078020  63.2044190
  11.0249820  23.9308490  57.2017420  10.4062240  23.5928040  56.5543720
  11.0074270  23.2868250  57.9096610  10.4676380  20.1093030  64.6183230
  10.0547560  20.9346740  64.8723220   9.7352330  19.5238070  64.4259590
   2.6009170  22.8952930  59.4801900   2.1966170  22.1830180  58.9847800
   2.6872290  22.5506170  60.3689940   3.0690870  26.5820490  61.6441110
   2.7719160  25.9765960  60.9648890   4.0190690  26.6197800  61.5330470
  11.1576480  30.1552360  65.3064210  10.6807040  30.9624550  65.1136820
  10.4738270  29.5030690  65.4590420   9.2014520  23.1695300  54.2090170
   9.6407800  22.3317730  54.0627990   9.9142940  23.8024700  54.2954310
   7.3109900  28.1091370  58.1771410   7.7505810  28.8515700  57.7626800
   7.2496790  28.3517940  59.1010370   2.7860870  29.1337200  69.0791430
   2.7576300  29.5380150  68.2119860   2.6225840  28.2047560  68.9163030
  12.7831660  14.4238110  52.5231210  12.4704320  14.5164940  53.4230280
  13.5444130  15.0019140  52.4728640  14.7375690  29.9164300  70.3755600
  15.2135410  30.3947190  71.0544680  15.3582850  29.8481790  69.6501100
  14.1408940  27.1077150  67.5355610  14.2672000  26.8689030  66.6172790
  14.1830320  26.2761690  68.0077690   8.0025680  30.8105150  66.1050420
   8.5170350  30.7213160  66.9072850   7.1594760  31.1564850  66.3978330
   9.9780080  31.0960490  55.5334420   9.8181220  30.8063430  56.4316250
   9.8126790  30.3200620  54.9979650   2.4568460  30.8759020  57.3106040
   2.2810940  29.9594560  57.0973840   1.6024200  31.2346310  57.5503840
   9.6806210  28.6048050  54.0932420   8.9871370  28.6025340  53.4334700
  10.4229070  28.1807370  53.6626590   9.2456140  30.2310760  58.1680910
   9.7013090  29.4500140  58.4819530   9.5848660  30.9417580  58.7122090
  13.9932950  19.1609610  68.5005350  13.3777220  19.6689280  67.9720810
  13.6729370  18.2607940  68.4431290   6.0547270  18.0001500  65.9667540
   5.5926640  18.2084520  66.7787480   5.6525380  17.1860850  65.6638210
  11.0551780  19.2210450  67.0964200  10.2045370  18.9216200  67.4173270
  10.8953570  19.4652460  66.1848020   8.1501490  20.7212200  69.1962990
   8.4754900  19.8875950  68.8565220   8.9381820  21.2440720  69.3441320
   4.8836280  14.7543680  55.2438050   4.2590460  14.7503550  55.9691360
   4.7966400  13.8874640  54.8474020   3.8053360  15.6780310  62.2221820
   4.1025690  16.5843140  62.1413840   4.3538920  15.1899090  61.6081390
   8.7889440  20.2629920  56.6904120   8.1898330  20.9865720  56.5067740
   9.3369050  20.2006700  55.9080570   3.9990890  21.1552130  68.7573740
   3.9034490  20.2146860  68.6074140   4.8422870  21.3767200  68.3621810
   7.3954310  18.8993460  58.7207400   7.7883880  19.2165660  57.9076090
   7.7571160  18.0205340  58.8351920   5.7046480  17.6500770  69.9804260
   5.0144800  17.4572970  70.6150350   6.4478780  17.9335410  70.5128560
   7.9809450  21.4899210  62.8158180   7.2490570  21.9986020  63.1648280
   7.5833790  20.6729190  62.5146960   4.4186840  18.1653410  61.2210670
   4.4222900  17.7243360  60.3715210   5.3137960  18.4870740  61.3282490
   4.4806990  19.1665490  54.2117430   4.6019810  19.1251970  55.1603250
   4.0955500  20.0289640  54.0564160   8.4435360  16.9432890  62.2281120
   8.4608100  17.3941540  63.0722970   8.1950940  16.0438530  62.4414560
   3.4928490  21.4766630  53.6100730   2.9245390  21.0284880  52.9836640
   4.2017490  21.8359410  53.0765880  11.8706110  14.3565070  68.0667500
  12.1951880  13.6254730  68.5925480  11.9062620  14.0378710  67.1648490
   4.7194810  22.2255190  62.9676080   5.0864940  21.7513760  63.7137420
   4.5299870  23.0996760  63.3084420   2.5094180  21.2663830  65.2860290
   2.2051250  22.1455810  65.5110650   3.4640640  21.3263620  65.3217730
  11.7963950  24.4690180  61.6753530  12.5163070  24.9645470  61.2849640
  11.5945770  23.7908070  61.0307400   7.2573890  15.8628140  55.8182920
   6.4438500  15.3641310  55.7428230   7.0635840  16.7026390  55.4019270
   7.1782750  24.5399240  67.5622530   7.1120060  23.6194910  67.3080120
   6.5487890  24.6374680  68.2767170   9.9722280  20.2347790  54.1145080
  10.8601900  20.5465020  53.9396420   9.9427370  19.3620040  53.7225660
   5.9682870  26.4071480  54.7933250   6.3098570  27.1513710  54.2976570
   5.1395580  26.7202600  55.1558080   7.1099480  27.3619810  67.3126330
   7.1244020  26.4300770  67.0945240   6.4024580  27.4479570  67.9516100
  12.2436550  21.5459630  53.5824940  12.1600270  21.9773850  52.7321380
  12.9630740  22.0057980  54.0151760  13.3210690  24.0027150  66.6594910
  12.5958880  24.5955930  66.4624300  13.8486150  23.9950690  65.8608280
  13.2723800  28.4001890  56.3107070  12.6299960  27.7457510  56.5850790
  12.8854460  28.8056980  55.5347740   8.8510280  25.7287320  60.1578760
   9.2034100  25.1315450  59.4980130   7.9672610  25.4031550  60.3287010
   4.9373560  26.4885010  57.5649170   5.6244690  27.0354220  57.9456760
   4.1505980  27.0325740  57.5998780   4.2400770  23.4931040  57.1774530
   4.6963550  24.3036290  57.4034720   3.8888980  23.1754180  58.0093020
   6.5433380  29.0037380  64.4066830   7.1875600  29.2096760  65.0840250
   6.9062820  28.2425780  63.9537680   7.8165460  27.0069730  63.1244280
   8.4587690  26.3062890  63.2376450   8.3414810  27.7868170  62.9441170
  11.6621180  27.2918350  52.8483420  11.4358760  26.5748790  53.4408060
  11.2717380  27.0430790  52.0105170   9.5903080  27.8064630  66.3280340
   9.9259320  28.3931320  67.0058260   8.6703420  27.6757340  66.5578130
  11.2437430  25.2090290  54.5097580  10.9559130  25.6702980  55.2975460
  12.0389600  24.7488060  54.7781800   5.4191660  27.8555960  69.4968400
   5.0988530  27.1365200  70.0414090   4.7450020  28.5311030  69.5704460
   3.4605830  28.7016410  54.4401550   3.4515930  29.4346100  53.8246060
   2.5404190  28.4547990  54.5328510   8.6345260  18.0882120  64.8605200
   9.0026080  17.2677330  65.1884770   7.7743460  18.1484010  65.2760850
  12.0007290  17.0439060  55.6692760  11.3720450  17.1484730  54.9550990
  11.5059210  17.2635840  56.4586640   6.4465430  28.7644650  53.1026740
   6.5477410  28.5608640  52.1728720   5.5467170  28.5102930  53.3074520
   3.9691320  19.3225010  57.0850640   3.2607470  19.7911350  57.5264250
   4.2535800  18.6647020  57.7195830   5.5947250  20.7421710  65.0843170
   6.0932500  21.2167530  65.7495020   5.7370200  19.8185230  65.2913200
   8.0006750  16.0475670  58.5246430   7.8774530  16.0661800  57.5755940
   8.9491310  16.0954610  58.6444830   5.0883540  31.2830970  57.7974410
   5.3425040  31.2452360  56.8753780   4.1396020  31.1564300  57.7902660
   2.1726340  17.6310090  54.4601350   3.0216870  18.0680240  54.3941540
   1.8057610  17.9430350  55.2873410  12.8014110  16.9589670  65.9271560
  12.2987710  17.6995070  66.2665370  13.6170770  17.3473670  65.6108350
  11.0936120  22.2022850  59.3732920  10.1526260  22.2173080  59.5480610
  11.4080190  21.4158810  59.8193220  13.0961700  29.3731700  61.0487180
  13.2209120  30.1962870  61.5210990  13.9627260  29.1622430  60.7011330
   3.6781540  30.6393220  52.5429880   4.4710150  30.9282050  52.0911670
   3.1585890  30.2085390  51.8642360   8.4102140  26.7588850  69.8565300
   7.8040300  26.7820450  69.1161050   8.1056250  26.0271890  70.3932550
   9.8402510  30.4869140  68.4674710  10.7924260  30.4027160  68.4174950
   9.6930730  31.1510850  69.1408500  12.7311710  29.8663350  53.9666620
  12.4453220  29.4528490  53.1520800  12.5331260  30.7951060  53.8467140
   4.1958940  25.8596630  52.4072230   4.0909580  25.2448980  53.1333610
   4.0283160  25.3362520  51.6235240   4.3473260  24.5453430  68.3861460
   3.5818930  25.1138430  68.3016130   4.5289220  24.2529640  67.4929690
   7.4361670  24.9216660  53.0114220   6.8871770  25.3685960  53.6556960
   8.0580930  24.4165910  53.5351890  11.4896610  26.2758760  68.9436480
  12.2306080  26.6134520  68.4403940  10.7269290  26.4450820  68.3906250
   3.1036790  23.8807580  54.9079520   3.5253210  23.7147450  55.7510910
   3.2287630  23.0707810  54.4134660   5.6164430  22.9045190  52.1556620
   6.1370090  22.1894210  51.7897770   6.2632830  23.5431060  52.4557130
  10.1642270  24.3273590  67.4791690  10.5783290  24.4818670  68.3282110
   9.2293270  24.4528810  67.6417470  10.6364440  21.6669750  69.4830840
  11.2185210  20.9122070  69.3951320  10.8126210  22.1977190  68.7062320
   4.5197950  15.3839740  64.8275180   4.0715250  15.4064000  63.9820730
   3.8863150  14.9858760  65.4245480   4.9257500  24.2794070  65.4487620
   5.3445610  25.1226800  65.2763860   4.0066130  24.4166110  65.2194400
   7.2621400  22.0110250  66.8325460   7.3817610  21.4151390  67.5720300
   8.1215400  22.0479940  66.4126760   9.6009300  22.5647440  65.4087970
   9.0744520  23.0890060  64.8053110   9.9440640  23.1974830  66.0397700
   1.9995690  19.9540810  51.8537680   1.7984750  19.0908170  52.2151020
   1.8287740  19.8674170  50.9159280   2.7764920  30.5847080  66.5645350
   2.2386010  31.3093140  66.2454050   3.0298880  30.1077420  65.7742690
   4.0290170  18.5531600  68.0901280   4.6189860  18.2447450  68.7779100
   3.2110410  18.0811350  68.2461180   8.8483600  18.1697410  68.3234300
   8.1599120  17.5078950  68.2584290   9.5689620  17.7235680  68.7682760
   9.4784000  14.7649040  54.3824560   9.7586290  13.9216940  54.7383980
   8.7049730  14.9972150  54.8963310   5.6327130  31.8198290  66.8232000
   5.5585830  32.7233430  67.1304370   4.7305970  31.5010190  66.7954070
   4.0163420  15.9976050  52.8271760   3.6685420  15.3200040  52.2474210
   4.2176190  15.5365560  53.6415150   6.1812460  30.9856800  54.4458360
   7.0763250  31.3241770  54.4677120   6.2130090  30.2636210  53.8182640
  13.1606810  29.5160470  67.1524560  12.5608800  29.5753030  66.4088480
  13.2900710  28.5765450  67.2821410  14.4008260  27.2578290  52.4894270
  13.5701220  27.3254940  52.9601500  14.5780090  28.1482410  52.1861130
  13.8564720  24.0025770  54.9928470  14.6183630  24.5722420  55.0988160
  13.8719090  23.4352970  55.7636780  14.8624690  24.8575870  59.8370400
  15.2333520  24.0743190  59.4306370  15.5026620  25.5464970  59.6587700
  11.8458450  26.2412450  65.2500720  11.0318290  26.6709610  65.5126510
  12.2532650  26.8530860  64.6369770  13.9083890  24.2960140  52.1500990
  14.1832730  25.2039020  52.0220210  13.7194630  24.2322670  53.0862980
  10.3059500  17.3204990  53.4454620  10.7244380  17.1335970  52.6051280
   9.9995560  16.4684040  53.7557550  13.8049230  22.2329130  57.1430420
  13.4292830  21.4657060  56.7111710  13.0752350  22.6151830  57.6305350
  13.1948850  21.3800650  66.7769940  12.9634940  21.1513400  65.8767890
  13.4553400  22.3000200  66.7314830  11.6336920  16.6057080  69.5549640
  12.5107100  16.6140480  69.9383640  11.6457760  15.8687920  68.9441990
  13.0800190  20.4586620  60.4437660  13.6037670  19.9649270  59.8127830
  13.6659610  20.5936980  61.1885230  13.2589910  20.5426490  63.9657210
  12.3092620  20.5090030  64.0802200  13.4402920  21.4526600  63.7306980
  12.5700160  19.7159970  56.3830070  13.0659280  19.4830840  57.1678950
  12.3716230  18.8771810  55.9667710  13.9987320  18.3520920  58.9167750
  13.8886600  18.1976960  59.8550020  14.7594910  17.8241860  58.6743160
  12.3453040  14.2915050  65.3750750  12.9825260  14.9049190  65.7409940
  12.4927930  14.3275710  64.4299980  14.8877590  16.1828840  52.1573890
  15.8126900  16.0510020  51.9492180  14.8653380  16.2621660  53.1110340
  14.9616080  16.9539500  54.7830600  14.1667580  16.8884620  55.3123510
  15.1659360  17.8890140  54.7715950  11.9034500  30.9931050  58.7768990
  12.4993570  30.6715620  58.1003410  12.1612650  30.5202870  59.5682260
   3.5103100  28.9808550  64.5269340   3.2694460  29.2483110  63.6399860
   4.4505740  29.1514280  64.5820200   5.7157520  15.4441240  68.2825850
   5.6546410  16.0363070  69.0321260   6.6557900  15.3367200  68.1376110
   8.3532080  15.1011300  67.9218140   8.9672490  15.4190590  67.2599220
   8.8981640  14.6159890  68.5414000  14.7707260  31.0002930  65.3279980
  14.2765540  31.3971800  64.6107110  14.1620550  30.3752140  65.7217260
   9.0940120  13.6643440  64.2487430   8.2199960  13.9978550  64.0460360
   8.9850870  13.1916620  65.0739300  10.0012100  15.8714310  65.6329150
   9.6725460  15.0566070  65.2530880  10.9494400  15.8284120  65.5094840
  12.4546710  31.6426350  62.6066720  11.9949680  32.3942160  62.2324740
  11.8259170  30.9232820  62.5481520   2.8842430  29.9514590  61.7814850
   3.4007450  29.3401950  61.2563110   3.5339810  30.4543370  62.2725860
   5.6237930  30.8423080  62.6083830   5.9115740  30.5877380  61.7316840
   6.1361150  30.2900440  63.1989400   6.8414940  14.5813280  63.1880340
   6.0586730  15.0558780  63.4677100   6.5477870  13.6768110  63.0793520
  11.3936010  15.2836380  61.2329430  11.8344100  15.2281480  60.3851030
  11.1243600  16.1994390  61.3039610  13.2574580  14.9151620  59.2438250
  13.1962980  13.9712840  59.0969270  14.0366610  15.0231710  59.7891710
   4.7269160  17.0000030  58.6996370   3.9143670  16.6256920  58.3592250
   5.2310800  16.2445110  59.0017560   9.2294140  13.6642480  59.9379440
   9.8323510  14.2362690  60.4127960   8.4887130  14.2281920  59.7153340
  12.3728740  14.0664040  55.2119720  12.5679370  14.9647490  55.4787150
  11.5858610  13.8351120  55.7052670   2.7518340  15.1499950  57.3041420
   2.1221080  14.4487260  57.4711550   2.2123480  15.9104080  57.0874580
   5.6910290  31.7639180  69.9752030   6.6177600  31.5283450  70.0187990
   5.6760720  32.5911180  69.4938060  13.9255350  31.3064750  56.9726280
  14.1007540  30.6202490  56.3287200  13.2276920  31.8311800  56.5802950
   2.8773900  14.4283930  69.7393910   2.5958170  14.9317530  68.9754730
   3.2593600  13.6305680  69.3736040   1.7683000  31.6959590  54.5261590
   2.5001820  31.4118870  53.9785480   2.0276670  31.4572870  55.4160970
   9.4789360  13.8437510  70.3174380   9.3654810  14.1632120  71.2125900
  10.2959100  14.2450020  70.0211660  12.2587850  30.9909040  69.7993070
  13.0513170  30.4958270  69.5919030  12.5521000  31.6699180  70.4068680
   8.3847510  21.8629980  40.6809120   8.3041560  20.9484590  40.4100830
   7.9711930  22.3597050  39.9748830   6.5165550  23.6409000  42.5618390
   5.7407650  23.1609440  42.8516960   7.1678480  22.9614650  42.3874550
  10.5372980  28.0469190  41.3417520  10.0754510  27.2756430  41.6704690
  11.3498530  28.0735260  41.8469970   6.7636290  30.3327200  40.9621510
   6.1447730  30.7884700  40.3915950   7.6188070  30.4878660  40.5611210
   5.9574540  26.3166190  42.5688550   5.8882820  25.3756130  42.4077680
   6.7194400  26.4067600  43.1411120   6.9879710  19.1236570  42.7957480
   7.3644530  18.2508450  42.6831150   6.8899220  19.4595270  41.9047920
  10.7703830  16.6187010  39.7285820  11.5913450  16.1283580  39.7711300
  10.8037910  17.2084670  40.4817660   2.9592450  20.4648570  42.5900100
   3.4670670  20.9629540  43.2305120   3.4905690  19.6883770  42.4139460
  15.0603380  18.6353760  46.2929450  14.3555550  19.0235470  45.7744560
  15.3261300  19.3304050  46.8950380   7.6299640  25.2166440  38.3553420
   7.0116910  25.6815890  37.7916140   8.1422890  25.9093920  38.7722930
   2.4931400  24.7442310  45.0337020   2.1600780  25.3711230  45.6758090
   2.6698080  25.2704190  44.2538690  11.0065310  18.5587390  42.5013360
  10.3020880  18.8472280  43.0816470  11.3677470  19.3687500  42.1412920
  12.6228090  28.1762520  44.7640840  11.9391610  28.8461630  44.7557510
  13.1622380  28.3743170  43.9985700  14.0752230  18.0042180  42.8922570
  13.1277140  18.0381160  43.0238000  14.4002220  18.8181130  43.2771930
   4.6071770  14.3039360  41.1878560   4.9146750  13.7486250  40.4714060
   3.6772470  14.4383820  41.0051550  10.1586830  30.0206650  43.4786020
  10.1713990  29.6168940  42.6108280   9.6062050  30.7953940  43.3747450
  11.4532250  26.7422870  38.5676190  11.3428580  25.7997200  38.6925610
  11.4500500  27.1038510  39.4538950   9.5572270  24.9236490  44.8068630
   9.9741060  24.7096600  43.9722090  10.2812090  25.1809280  45.3777250
   6.9952530  22.3688190  37.9238680   6.0681810  22.3025570  38.1527150
   7.1477350  23.3068320  37.8093920   6.9821610  18.6405190  34.9205840
   6.0425280  18.8019150  35.0058300   7.3004870  19.3590870  34.3741830
  13.5034370  23.3223710  44.8984870  12.6753000  23.3916800  44.4235000
  14.0984850  23.9078020  44.4300700  11.0249820  23.9308490  38.4273930
  10.4062240  23.5928040  37.7800230  11.0074270  23.2868250  39.1353120
  10.4676380  20.1093030  45.8439740  10.0547560  20.9346740  46.0979730
   9.7352330  19.5238070  45.6516100   2.6009170  22.8952930  40.7058410
   2.1966170  22.1830180  40.2104310   2.6872290  22.5506170  41.5946450
   3.0690870  26.5820490  42.8697620   2.7719160  25.9765960  42.1905400
   4.0190690  26.6197800  42.7586980  11.1576480  30.1552360  46.5320720
  10.6807040  30.9624550  46.3393330  10.4738270  29.5030690  46.6846930
   9.2014520  23.1695300  35.4346680   9.6407800  22.3317730  35.2884500
   9.9142940  23.8024700  35.5210820   7.3109900  28.1091370  39.4027920
   7.7505810  28.8515700  38.9883310   7.2496790  28.3517940  40.3266880
   2.7860870  29.1337200  50.3047940   2.7576300  29.5380150  49.4376370
   2.6225840  28.2047560  50.1419540  12.7831660  14.4238110  33.7487720
  12.4704320  14.5164940  34.6486790  13.5444130  15.0019140  33.6985150
  14.7375690  29.9164300  51.6012110  15.2135410  30.3947190  52.2801190
  15.3582850  29.8481790  50.8757610  14.1408940  27.1077150  48.7612120
  14.2672000  26.8689030  47.8429300  14.1830320  26.2761690  49.2334200
   8.0025680  30.8105150  47.3306930   8.5170350  30.7213160  48.1329360
   7.1594760  31.1564850  47.6234840   9.9780080  31.0960490  36.7590930
   9.8181220  30.8063430  37.6572760   9.8126790  30.3200620  36.2236160
   2.4568460  30.8759020  38.5362550   2.2810940  29.9594560  38.3230350
   1.6024200  31.2346310  38.7760350   9.6806210  28.6048050  35.3188930
   8.9871370  28.6025340  34.6591210  10.4229070  28.1807370  34.8883100
   9.2456140  30.2310760  39.3937420   9.7013090  29.4500140  39.7076040
   9.5848660  30.9417580  39.9378600  13.9932950  19.1609610  49.7261860
  13.3777220  19.6689280  49.1977320  13.6729370  18.2607940  49.6687800
   6.0547270  18.0001500  47.1924050   5.5926640  18.2084520  48.0043990
   5.6525380  17.1860850  46.8894720  11.0551780  19.2210450  48.3220710
  10.2045370  18.9216200  48.6429780  10.8953570  19.4652460  47.4104530
   8.1501490  20.7212200  50.4219500   8.4754900  19.8875950  50.0821730
   8.9381820  21.2440720  50.5697830   4.8836280  14.7543680  36.4694560
   4.2590460  14.7503550  37.1947870   4.7966400  13.8874640  36.0730530
   3.8053360  15.6780310  43.4478330   4.1025690  16.5843140  43.3670350
   4.3538920  15.1899090  42.8337900   8.7889440  20.2629920  37.9160630
   8.1898330  20.9865720  37.7324250   9.3369050  20.2006700  37.1337080
   3.9990890  21.1552130  49.9830250   3.9034490  20.2146860  49.8330650
   4.8422870  21.3767200  49.5878320   7.3954310  18.8993460  39.9463910
   7.7883880  19.2165660  39.1332600   7.7571160  18.0205340  40.0608430
   5.7046480  17.6500770  51.2060770   5.0144800  17.4572970  51.8406860
   6.4478780  17.9335410  51.7385070   7.9809450  21.4899210  44.0414690
   7.2490570  21.9986020  44.3904790   7.5833790  20.6729190  43.7403470
   4.4186840  18.1653410  42.4467180   4.4222900  17.7243360  41.5971720
   5.3137960  18.4870740  42.5539000   4.4806990  19.1665490  35.4373940
   4.6019810  19.1251970  36.3859760   4.0955500  20.0289640  35.2820670
   8.4435360  16.9432890  43.4537630   8.4608100  17.3941540  44.2979480
   8.1950940  16.0438530  43.6671070   3.4928490  21.4766630  34.8357240
   2.9245390  21.0284880  34.2093150   4.2017490  21.8359410  34.3022390
  11.8706110  14.3565070  49.2924010  12.1951880  13.6254730  49.8181990
  11.9062620  14.0378710  48.3905000   4.7194810  22.2255190  44.1932590
   5.0864940  21.7513760  44.9393930   4.5299870  23.0996760  44.5340930
   2.5094180  21.2663830  46.5116800   2.2051250  22.1455810  46.7367160
   3.4640640  21.3263620  46.5474240  11.7963950  24.4690180  42.9010040
  12.5163070  24.9645470  42.5106150  11.5945770  23.7908070  42.2563910
   7.2573890  15.8628140  37.0439430   6.4438500  15.3641310  36.9684740
   7.0635840  16.7026390  36.6275780   7.1782750  24.5399240  48.7879040
   7.1120060  23.6194910  48.5336630   6.5487890  24.6374680  49.5023680
   9.9722280  20.2347790  35.3401590  10.8601900  20.5465020  35.1652930
   9.9427370  19.3620040  34.9482170   5.9682870  26.4071480  36.0189760
   6.3098570  27.1513710  35.5233080   5.1395580  26.7202600  36.3814590
   7.1099480  27.3619810  48.5382840   7.1244020  26.4300770  48.3201750
   6.4024580  27.4479570  49.1772610  12.2436550  21.5459630  34.8081450
  12.1600270  21.9773850  33.9577890  12.9630740  22.0057980  35.2408270
  13.3210690  24.0027150  47.8851420  12.5958880  24.5955930  47.6880810
  13.8486150  23.9950690  47.0864790  13.2723800  28.4001890  37.5363580
  12.6299960  27.7457510  37.8107300  12.8854460  28.8056980  36.7604250
   8.8510280  25.7287320  41.3835270   9.2034100  25.1315450  40.7236640
   7.9672610  25.4031550  41.5543520   4.9373560  26.4885010  38.7905680
   5.6244690  27.0354220  39.1713270   4.1505980  27.0325740  38.8255290
   4.2400770  23.4931040  38.4031040   4.6963550  24.3036290  38.6291230
   3.8888980  23.1754180  39.2349530   6.5433380  29.0037380  45.6323340
   7.1875600  29.2096760  46.3096760   6.9062820  28.2425780  45.1794190
   7.8165460  27.0069730  44.3500790   8.4587690  26.3062890  44.4632960
   8.3414810  27.7868170  44.1697680  11.6621180  27.2918350  34.0739930
  11.4358760  26.5748790  34.6664570  11.2717380  27.0430790  33.2361680
   9.5903080  27.8064630  47.5536850   9.9259320  28.3931320  48.2314770
   8.6703420  27.6757340  47.7834640  11.2437430  25.2090290  35.7354090
  10.9559130  25.6702980  36.5231970  12.0389600  24.7488060  36.0038310
   5.4191660  27.8555960  50.7224910   5.0988530  27.1365200  51.2670600
   4.7450020  28.5311030  50.7960970   3.4605830  28.7016410  35.6658060
   3.4515930  29.4346100  35.0502570   2.5404190  28.4547990  35.7585020
   8.6345260  18.0882120  46.0861710   9.0026080  17.2677330  46.4141280
   7.7743460  18.1484010  46.5017360  12.0007290  17.0439060  36.8949270
  11.3720450  17.1484730  36.1807500  11.5059210  17.2635840  37.6843150
   6.4465430  28.7644650  34.3283250   6.5477410  28.5608640  33.3985230
   5.5467170  28.5102930  34.5331030   3.9691320  19.3225010  38.3107150
   3.2607470  19.7911350  38.7520760   4.2535800  18.6647020  38.9452340
   5.5947250  20.7421710  46.3099680   6.0932500  21.2167530  46.9751530
   5.7370200  19.8185230  46.5169710   8.0006750  16.0475670  39.7502940
   7.8774530  16.0661800  38.8012450   8.9491310  16.0954610  39.8701340
   5.0883540  31.2830970  39.0230920   5.3425040  31.2452360  38.1010290
   4.1396020  31.1564300  39.0159170   2.1726340  17.6310090  35.6857860
   3.0216870  18.0680240  35.6198050   1.8057610  17.9430350  36.5129920
  12.8014110  16.9589670  47.1528070  12.2987710  17.6995070  47.4921880
  13.6170770  17.3473670  46.8364860  11.0936120  22.2022850  40.5989430
  10.1526260  22.2173080  40.7737120  11.4080190  21.4158810  41.0449730
  13.0961700  29.3731700  42.2743690  13.2209120  30.1962870  42.7467500
  13.9627260  29.1622430  41.9267840   3.6781540  30.6393220  33.7686390
   4.4710150  30.9282050  33.3168180   3.1585890  30.2085390  33.0898870
   8.4102140  26.7588850  51.0821810   7.8040300  26.7820450  50.3417560
   8.1056250  26.0271890  51.6189060   9.8402510  30.4869140  49.6931220
  10.7924260  30.4027160  49.6431460   9.6930730  31.1510850  50.3665010
  12.7311710  29.8663350  35.1923130  12.4453220  29.4528490  34.3777310
  12.5331260  30.7951060  35.0723650   4.1958940  25.8596630  33.6328740
   4.0909580  25.2448980  34.3590120   4.0283160  25.3362520  32.8491750
   4.3473260  24.5453430  49.6117970   3.5818930  25.1138430  49.5272640
   4.5289220  24.2529640  48.7186200   7.4361670  24.9216660  34.2370730
   6.8871770  25.3685960  34.8813470   8.0580930  24.4165910  34.7608400
  11.4896610  26.2758760  50.1692990  12.2306080  26.6134520  49.6660450
  10.7269290  26.4450820  49.6162760   3.1036790  23.8807580  36.1336030
   3.5253210  23.7147450  36.9767420   3.2287630  23.0707810  35.6391170
   5.6164430  22.9045190  33.3813130   6.1370090  22.1894210  33.0154280
   6.2632830  23.5431060  33.6813640  10.1642270  24.3273590  48.7048200
  10.5783290  24.4818670  49.5538620   9.2293270  24.4528810  48.8673980
  10.6364440  21.6669750  50.7087350  11.2185210  20.9122070  50.6207830
  10.8126210  22.1977190  49.9318830   4.5197950  15.3839740  46.0531690
   4.0715250  15.4064000  45.2077240   3.8863150  14.9858760  46.6501990
   4.9257500  24.2794070  46.6744130   5.3445610  25.1226800  46.5020370
   4.0066130  24.4166110  46.4450910   7.2621400  22.0110250  48.0581970
   7.3817610  21.4151390  48.7976810   8.1215400  22.0479940  47.6383270
   9.6009300  22.5647440  46.6344480   9.0744520  23.0890060  46.0309620
   9.9440640  23.1974830  47.2654210   1.9995690  19.9540810  33.0794190
   1.7984750  19.0908170  33.4407530   1.8287740  19.8674170  32.1415790
   2.7764920  30.5847080  47.7901860   2.2386010  31.3093140  47.4710560
   3.0298880  30.1077420  46.9999200   4.0290170  18.5531600  49.3157790
   4.6189860  18.2447450  50.0035610   3.2110410  18.0811350  49.4717690
   8.8483600  18.1697410  49.5490810   8.1599120  17.5078950  49.4840800
   9.5689620  17.7235680  49.9939270   9.4784000  14.7649040  35.6081070
   9.7586290  13.9216940  35.9640490   8.7049730  14.9972150  36.1219820
   5.6327130  31.8198290  48.0488510   5.5585830  32.7233430  48.3560880
   4.7305970  31.5010190  48.0210580   4.0163420  15.9976050  34.0528270
   3.6685420  15.3200040  33.4730720   4.2176190  15.5365560  34.8671660
   6.1812460  30.9856800  35.6714870   7.0763250  31.3241770  35.6933630
   6.2130090  30.2636210  35.0439150  13.1606810  29.5160470  48.3781070
  12.5608800  29.5753030  47.6344990  13.2900710  28.5765450  48.5077920
  14.4008260  27.2578290  33.7150780  13.5701220  27.3254940  34.1858010
  14.5780090  28.1482410  33.4117640  13.8564720  24.0025770  36.2184980
  14.6183630  24.5722420  36.3244670  13.8719090  23.4352970  36.9893290
  14.8624690  24.8575870  41.0626910  15.2333520  24.0743190  40.6562880
  15.5026620  25.5464970  40.8844210  11.8458450  26.2412450  46.4757230
  11.0318290  26.6709610  46.7383020  12.2532650  26.8530860  45.8626280
  13.9083890  24.2960140  33.3757500  14.1832730  25.2039020  33.2476720
  13.7194630  24.2322670  34.3119490  10.3059500  17.3204990  34.6711130
  10.7244380  17.1335970  33.8307790   9.9995560  16.4684040  34.9814060
  13.8049230  22.2329130  38.3686930  13.4292830  21.4657060  37.9368220
  13.0752350  22.6151830  38.8561860  13.1948850  21.3800650  48.0026450
  12.9634940  21.1513400  47.1024400  13.4553400  22.3000200  47.9571340
  11.6336920  16.6057080  50.7806150  12.5107100  16.6140480  51.1640150
  11.6457760  15.8687920  50.1698500  13.0800190  20.4586620  41.6694170
  13.6037670  19.9649270  41.0384340  13.6659610  20.5936980  42.4141740
  13.2589910  20.5426490  45.1913720  12.3092620  20.5090030  45.3058710
  13.4402920  21.4526600  44.9563490  12.5700160  19.7159970  37.6086580
  13.0659280  19.4830840  38.3935460  12.3716230  18.8771810  37.1924220
  13.9987320  18.3520920  40.1424260  13.8886600  18.1976960  41.0806530
  14.7594910  17.8241860  39.8999670  12.3453040  14.2915050  46.6007260
  12.9825260  14.9049190  46.9666450  12.4927930  14.3275710  45.6556490
  14.8877590  16.1828840  33.3830400  15.8126900  16.0510020  33.1748690
  14.8653380  16.2621660  34.3366850  14.9616080  16.9539500  36.0087110
  14.1667580  16.8884620  36.5380020  15.1659360  17.8890140  35.9972460
  11.9034500  30.9931050  40.0025500  12.4993570  30.6715620  39.3259920
  12.1612650  30.5202870  40.7938770   3.5103100  28.9808550  45.7525850
   3.2694460  29.2483110  44.8656370   4.4505740  29.1514280  45.8076710
   5.7157520  15.4441240  49.5082360   5.6546410  16.0363070  50.2577770
   6.6557900  15.3367200  49.3632620   8.3532080  15.1011300  49.1474650
   8.9672490  15.4190590  48.4855730   8.8981640  14.6159890  49.7670510
  14.7707260  31.0002930  46.5536490  14.2765540  31.3971800  45.8363620
  14.1620550  30.3752140  46.9473770   9.0940120  13.6643440  45.4743940
   8.2199960  13.9978550  45.2716870   8.9850870  13.1916620  46.2995810
  10.0012100  15.8714310  46.8585660   9.6725460  15.0566070  46.4787390
  10.9494400  15.8284120  46.7351350  12.4546710  31.6426350  43.8323230
  11.9949680  32.3942160  43.4581250  11.8259170  30.9232820  43.7738030
   2.8842430  29.9514590  43.0071360   3.4007450  29.3401950  42.4819620
   3.5339810  30.4543370  43.4982370   5.6237930  30.8423080  43.8340340
   5.9115740  30.5877380  42.9573350   6.1361150  30.2900440  44.4245910
   6.8414940  14.5813280  44.4136850   6.0586730  15.0558780  44.6933610
   6.5477870  13.6768110  44.3050030  11.3936010  15.2836380  42.4585940
  11.8344100  15.2281480  41.6107540  11.1243600  16.1994390  42.5296120
  13.2574580  14.9151620  40.4694760  13.1962980  13.9712840  40.3225780
  14.0366610  15.0231710  41.0148220   4.7269160  17.0000030  39.9252880
   3.9143670  16.6256920  39.5848760   5.2310800  16.2445110  40.2274070
   9.2294140  13.6642480  41.1635950   9.8323510  14.2362690  41.6384470
   8.4887130  14.2281920  40.9409850  12.3728740  14.0664040  36.4376230
  12.5679370  14.9647490  36.7043660  11.5858610  13.8351120  36.9309180
   2.7518340  15.1499950  38.5297930   2.1221080  14.4487260  38.6968060
   2.2123480  15.9104080  38.3131090   5.6910290  31.7639180  51.2008540
   6.6177600  31.5283450  51.2444500   5.6760720  32.5911180  50.7194570
  13.9255350  31.3064750  38.1982790  14.1007540  30.6202490  37.5543710
  13.2276920  31.8311800  37.8059460   2.8773900  14.4283930  50.9650420
   2.5958170  14.9317530  50.2011240   3.2593600  13.6305680  50.5992550
   1.7683000  31.6959590  35.7518100   2.5001820  31.4118870  35.2041990
   2.0276670  31.4572870  36.6417480   9.4789360  13.8437510  51.5430890
   9.3654810  14.1632120  52.4382410  10.2959100  14.2450020  51.2468170
  12.2587850  30.9909040  51.0249580  13.0513170  30.4958270  50.8175540
  12.5521000  31.6699180  51.6325190   8.3847510  21.8629980  21.9065630
   8.3041560  20.9484590  21.6357340   7.9711930  22.3597050  21.2005340
   6.5165550  23.6409000  23.7874900   5.7407650  23.1609440  24.0773470
   7.1678480  22.9614650  23.6131060  10.5372980  28.0469190  22.5674030
  10.0754510  27.2756430  22.8961200  11.3498530  28.0735260  23.0726480
   6.7636290  30.3327200  22.1878020   6.1447730  30.7884700  21.6172460
   7.6188070  30.4878660  21.7867720   5.9574540  26.3166190  23.7945060
   5.8882820  25.3756130  23.6334190   6.7194400  26.4067600  24.3667630
   6.9879710  19.1236570  24.0213990   7.3644530  18.2508450  23.9087660
   6.8899220  19.4595270  23.1304430  10.7703830  16.6187010  20.9542330
  11.5913450  16.1283580  20.9967810  10.8037910  17.2084670  21.7074170
   2.9592450  20.4648570  23.8156610   3.4670670  20.9629540  24.4561630
   3.4905690  19.6883770  23.6395970  15.0603380  18.6353760  27.5185960
  14.3555550  19.0235470  27.0001070  15.3261300  19.3304050  28.1206890
   7.6299640  25.2166440  19.5809930   7.0116910  25.6815890  19.0172650
   8.1422890  25.9093920  19.9979440   2.4931400  24.7442310  26.2593530
   2.1600780  25.3711230  26.9014600   2.6698080  25.2704190  25.4795200
  11.0065310  18.5587390  23.7269870  10.3020880  18.8472280  24.3072980
  11.3677470  19.3687500  23.3669430  12.6228090  28.1762520  25.9897350
  11.9391610  28.8461630  25.9814020  13.1622380  28.3743170  25.2242210
  14.0752230  18.0042180  24.1179080  13.1277140  18.0381160  24.2494510
  14.4002220  18.8181130  24.5028440   4.6071770  14.3039360  22.4135070
   4.9146750  13.7486250  21.6970570   3.6772470  14.4383820  22.2308060
  10.1586830  30.0206650  24.7042530  10.1713990  29.6168940  23.8364790
   9.6062050  30.7953940  24.6003960  11.4532250  26.7422870  19.7932700
  11.3428580  25.7997200  19.9182120  11.4500500  27.1038510  20.6795460
   9.5572270  24.9236490  26.0325140   9.9741060  24.7096600  25.1978600
  10.2812090  25.1809280  26.6033760   6.9952530  22.3688190  19.1495190
   6.0681810  22.3025570  19.3783660   7.1477350  23.3068320  19.0350430
   6.9821610  18.6405190  16.1462350   6.0425280  18.8019150  16.2314810
   7.3004870  19.3590870  15.5998340  13.5034370  23.3223710  26.1241380
  12.6753000  23.3916800  25.6491510  14.0984850  23.9078020  25.6557210
  11.0249820  23.9308490  19.6530440  10.4062240  23.5928040  19.0056740
  11.0074270  23.2868250  20.3609630  10.4676380  20.1093030  27.0696250
  10.0547560  20.9346740  27.3236240   9.7352330  19.5238070  26.8772610
   2.6009170  22.8952930  21.9314920   2.1966170  22.1830180  21.4360820
   2.6872290  22.5506170  22.8202960   3.0690870  26.5820490  24.0954130
   2.7719160  25.9765960  23.4161910   4.0190690  26.6197800  23.9843490
  11.1576480  30.1552360  27.7577230  10.6807040  30.9624550  27.5649840
  10.4738270  29.5030690  27.9103440   9.2014520  23.1695300  16.6603190
   9.6407800  22.3317730  16.5141010   9.9142940  23.8024700  16.7467330
   7.3109900  28.1091370  20.6284430   7.7505810  28.8515700  20.2139820
   7.2496790  28.3517940  21.5523390   2.7860870  29.1337200  31.5304450
   2.7576300  29.5380150  30.6632880   2.6225840  28.2047560  31.3676050
  12.7831660  14.4238110  14.9744230  12.4704320  14.5164940  15.8743300
  13.5444130  15.0019140  14.9241660  14.7375690  29.9164300  32.8268620
  15.2135410  30.3947190  33.5057700  15.3582850  29.8481790  32.1014120
  14.1408940  27.1077150  29.9868630  14.2672000  26.8689030  29.0685810
  14.1830320  26.2761690  30.4590710   8.0025680  30.8105150  28.5563440
   8.5170350  30.7213160  29.3585870   7.1594760  31.1564850  28.8491350
   9.9780080  31.0960490  17.9847440   9.8181220  30.8063430  18.8829270
   9.8126790  30.3200620  17.4492670   2.4568460  30.8759020  19.7619060
   2.2810940  29.9594560  19.5486860   1.6024200  31.2346310  20.0016860
   9.6806210  28.6048050  16.5445440   8.9871370  28.6025340  15.8847720
  10.4229070  28.1807370  16.1139610   9.2456140  30.2310760  20.6193930
   9.7013090  29.4500140  20.9332550   9.5848660  30.9417580  21.1635110
  13.9932950  19.1609610  30.9518370  13.3777220  19.6689280  30.4233830
  13.6729370  18.2607940  30.8944310   6.0547270  18.0001500  28.4180560
   5.5926640  18.2084520  29.2300500   5.6525380  17.1860850  28.1151230
  11.0551780  19.2210450  29.5477220  10.2045370  18.9216200  29.8686290
  10.8953570  19.4652460  28.6361040   8.1501490  20.7212200  31.6476010
   8.4754900  19.8875950  31.3078240   8.9381820  21.2440720  31.7954340
   4.8836280  14.7543680  17.6951070   4.2590460  14.7503550  18.4204380
   4.7966400  13.8874640  17.2987040   3.8053360  15.6780310  24.6734840
   4.1025690  16.5843140  24.5926860   4.3538920  15.1899090  24.0594410
   8.7889440  20.2629920  19.1417140   8.1898330  20.9865720  18.9580760
   9.3369050  20.2006700  18.3593590   3.9990890  21.1552130  31.2086760
   3.9034490  20.2146860  31.0587160   4.8422870  21.3767200  30.8134830
   7.3954310  18.8993460  21.1720420   7.7883880  19.2165660  20.3589110
   7.7571160  18.0205340  21.2864940   5.7046480  17.6500770  32.4317280
   5.0144800  17.4572970  33.0663370   6.4478780  17.9335410  32.9641580
   7.9809450  21.4899210  25.2671200   7.2490570  21.9986020  25.6161300
   7.5833790  20.6729190  24.9659980   4.4186840  18.1653410  23.6723690
   4.4222900  17.7243360  22.8228230   5.3137960  18.4870740  23.7795510
   4.4806990  19.1665490  16.6630450   4.6019810  19.1251970  17.6116270
   4.0955500  20.0289640  16.5077180   8.4435360  16.9432890  24.6794140
   8.4608100  17.3941540  25.5235990   8.1950940  16.0438530  24.8927580
   3.4928490  21.4766630  16.0613750   2.9245390  21.0284880  15.4349660
   4.2017490  21.8359410  15.5278900  11.8706110  14.3565070  30.5180520
  12.1951880  13.6254730  31.0438500  11.9062620  14.0378710  29.6161510
   4.7194810  22.2255190  25.4189100   5.0864940  21.7513760  26.1650440
   4.5299870  23.0996760  25.7597440   2.5094180  21.2663830  27.7373310
   2.2051250  22.1455810  27.9623670   3.4640640  21.3263620  27.7730750
  11.7963950  24.4690180  24.1266550  12.5163070  24.9645470  23.7362660
  11.5945770  23.7908070  23.4820420   7.2573890  15.8628140  18.2695940
   6.4438500  15.3641310  18.1941250   7.0635840  16.7026390  17.8532290
   7.1782750  24.5399240  30.0135550   7.1120060  23.6194910  29.7593140
   6.5487890  24.6374680  30.7280190   9.9722280  20.2347790  16.5658100
  10.8601900  20.5465020  16.3909440   9.9427370  19.3620040  16.1738680
   5.9682870  26.4071480  17.2446270   6.3098570  27.1513710  16.7489590
   5.1395580  26.7202600  17.6071100   7.1099480  27.3619810  29.7639350
   7.1244020  26.4300770  29.5458260   6.4024580  27.4479570  30.4029120
  12.2436550  21.5459630  16.0337960  12.1600270  21.9773850  15.1834400
  12.9630740  22.0057980  16.4664780  13.3210690  24.0027150  29.1107930
  12.5958880  24.5955930  28.9137320  13.8486150  23.9950690  28.3121300
  13.2723800  28.4001890  18.7620090  12.6299960  27.7457510  19.0363810
  12.8854460  28.8056980  17.9860760   8.8510280  25.7287320  22.6091780
   9.2034100  25.1315450  21.9493150   7.9672610  25.4031550  22.7800030
   4.9373560  26.4885010  20.0162190   5.6244690  27.0354220  20.3969780
   4.1505980  27.0325740  20.0511800   4.2400770  23.4931040  19.6287550
   4.6963550  24.3036290  19.8547740   3.8888980  23.1754180  20.4606040
   6.5433380  29.0037380  26.8579850   7.1875600  29.2096760  27.5353270
   6.9062820  28.2425780  26.4050700   7.8165460  27.0069730  25.5757300
   8.4587690  26.3062890  25.6889470   8.3414810  27.7868170  25.3954190
  11.6621180  27.2918350  15.2996440  11.4358760  26.5748790  15.8921080
  11.2717380  27.0430790  14.4618190   9.5903080  27.8064630  28.7793360
   9.9259320  28.3931320  29.4571280   8.6703420  27.6757340  29.0091150
  11.2437430  25.2090290  16.9610600  10.9559130  25.6702980  17.7488480
  12.0389600  24.7488060  17.2294820   5.4191660  27.8555960  31.9481420
   5.0988530  27.1365200  32.4927110   4.7450020  28.5311030  32.0217480
   3.4605830  28.7016410  16.8914570   3.4515930  29.4346100  16.2759080
   2.5404190  28.4547990  16.9841530   8.6345260  18.0882120  27.3118220
   9.0026080  17.2677330  27.6397790   7.7743460  18.1484010  27.7273870
  12.0007290  17.0439060  18.1205780  11.3720450  17.1484730  17.4064010
  11.5059210  17.2635840  18.9099660   6.4465430  28.7644650  15.5539760
   6.5477410  28.5608640  14.6241740   5.5467170  28.5102930  15.7587540
   3.9691320  19.3225010  19.5363660   3.2607470  19.7911350  19.9777270
   4.2535800  18.6647020  20.1708850   5.5947250  20.7421710  27.5356190
   6.0932500  21.2167530  28.2008040   5.7370200  19.8185230  27.7426220
   8.0006750  16.0475670  20.9759450   7.8774530  16.0661800  20.0268960
   8.9491310  16.0954610  21.0957850   5.0883540  31.2830970  20.2487430
   5.3425040  31.2452360  19.3266800   4.1396020  31.1564300  20.2415680
   2.1726340  17.6310090  16.9114370   3.0216870  18.0680240  16.8454560
   1.8057610  17.9430350  17.7386430  12.8014110  16.9589670  28.3784580
  12.2987710  17.6995070  28.7178390  13.6170770  17.3473670  28.0621370
  11.0936120  22.2022850  21.8245940  10.1526260  22.2173080  21.9993630
  11.4080190  21.4158810  22.2706240  13.0961700  29.3731700  23.5000200
  13.2209120  30.1962870  23.9724010  13.9627260  29.1622430  23.1524350
   3.6781540  30.6393220  14.9942900   4.4710150  30.9282050  14.5424690
   3.1585890  30.2085390  14.3155380   8.4102140  26.7588850  32.3078320
   7.8040300  26.7820450  31.5674070   8.1056250  26.0271890  32.8445570
   9.8402510  30.4869140  30.9187730  10.7924260  30.4027160  30.8687970
   9.6930730  31.1510850  31.5921520  12.7311710  29.8663350  16.4179640
  12.4453220  29.4528490  15.6033820  12.5331260  30.7951060  16.2980160
   4.1958940  25.8596630  14.8585250   4.0909580  25.2448980  15.5846630
   4.0283160  25.3362520  14.0748260   4.3473260  24.5453430  30.8374480
   3.5818930  25.1138430  30.7529150   4.5289220  24.2529640  29.9442710
   7.4361670  24.9216660  15.4627240   6.8871770  25.3685960  16.1069980
   8.0580930  24.4165910  15.9864910  11.4896610  26.2758760  31.3949500
  12.2306080  26.6134520  30.8916960  10.7269290  26.4450820  30.8419270
   3.1036790  23.8807580  17.3592540   3.5253210  23.7147450  18.2023930
   3.2287630  23.0707810  16.8647680   5.6164430  22.9045190  14.6069640
   6.1370090  22.1894210  14.2410790   6.2632830  23.5431060  14.9070150
  10.1642270  24.3273590  29.9304710  10.5783290  24.4818670  30.7795130
   9.2293270  24.4528810  30.0930490  10.6364440  21.6669750  31.9343860
  11.2185210  20.9122070  31.8464340  10.8126210  22.1977190  31.1575340
   4.5197950  15.3839740  27.2788200   4.0715250  15.4064000  26.4333750
   3.8863150  14.9858760  27.8758500   4.9257500  24.2794070  27.9000640
   5.3445610  25.1226800  27.7276880   4.0066130  24.4166110  27.6707420
   7.2621400  22.0110250  29.2838480   7.3817610  21.4151390  30.0233320
   8.1215400  22.0479940  28.8639780   9.6009300  22.5647440  27.8600990
   9.0744520  23.0890060  27.2566130   9.9440640  23.1974830  28.4910720
   1.9995690  19.9540810  14.3050700   1.7984750  19.0908170  14.6664040
   1.8287740  19.8674170  13.3672300   2.7764920  30.5847080  29.0158370
   2.2386010  31.3093140  28.6967070   3.0298880  30.1077420  28.2255710
   4.0290170  18.5531600  30.5414300   4.6189860  18.2447450  31.2292120
   3.2110410  18.0811350  30.6974200   8.8483600  18.1697410  30.7747320
   8.1599120  17.5078950  30.7097310   9.5689620  17.7235680  31.2195780
   9.4784000  14.7649040  16.8337580   9.7586290  13.9216940  17.1897000
   8.7049730  14.9972150  17.3476330   5.6327130  31.8198290  29.2745020
   5.5585830  32.7233430  29.5817390   4.7305970  31.5010190  29.2467090
   4.0163420  15.9976050  15.2784780   3.6685420  15.3200040  14.6987230
   4.2176190  15.5365560  16.0928170   6.1812460  30.9856800  16.8971380
   7.0763250  31.3241770  16.9190140   6.2130090  30.2636210  16.2695660
  13.1606810  29.5160470  29.6037580  12.5608800  29.5753030  28.8601500
  13.2900710  28.5765450  29.7334430  14.4008260  27.2578290  14.9407290
  13.5701220  27.3254940  15.4114520  14.5780090  28.1482410  14.6374150
  13.8564720  24.0025770  17.4441490  14.6183630  24.5722420  17.5501180
  13.8719090  23.4352970  18.2149800  14.8624690  24.8575870  22.2883420
  15.2333520  24.0743190  21.8819390  15.5026620  25.5464970  22.1100720
  11.8458450  26.2412450  27.7013740  11.0318290  26.6709610  27.9639530
  12.2532650  26.8530860  27.0882790  13.9083890  24.2960140  14.6014010
  14.1832730  25.2039020  14.4733230  13.7194630  24.2322670  15.5376000
  10.3059500  17.3204990  15.8967640  10.7244380  17.1335970  15.0564300
   9.9995560  16.4684040  16.2070570  13.8049230  22.2329130  19.5943440
  13.4292830  21.4657060  19.1624730  13.0752350  22.6151830  20.0818370
  13.1948850  21.3800650  29.2282960  12.9634940  21.1513400  28.3280910
  13.4553400  22.3000200  29.1827850  11.6336920  16.6057080  32.0062660
  12.5107100  16.6140480  32.3896660  11.6457760  15.8687920  31.3955010
  13.0800190  20.4586620  22.8950680  13.6037670  19.9649270  22.2640850
  13.6659610  20.5936980  23.6398250  13.2589910  20.5426490  26.4170230
  12.3092620  20.5090030  26.5315220  13.4402920  21.4526600  26.1820000
  12.5700160  19.7159970  18.8343090  13.0659280  19.4830840  19.6191970
  12.3716230  18.8771810  18.4180730  13.9987320  18.3520920  21.3680770
  13.8886600  18.1976960  22.3063040  14.7594910  17.8241860  21.1256180
  12.3453040  14.2915050  27.8263770  12.9825260  14.9049190  28.1922960
  12.4927930  14.3275710  26.8813000  14.8877590  16.1828840  14.6086910
  15.8126900  16.0510020  14.4005200  14.8653380  16.2621660  15.5623360
  14.9616080  16.9539500  17.2343620  14.1667580  16.8884620  17.7636530
  15.1659360  17.8890140  17.2228970  11.9034500  30.9931050  21.2282010
  12.4993570  30.6715620  20.5516430  12.1612650  30.5202870  22.0195280
   3.5103100  28.9808550  26.9782360   3.2694460  29.2483110  26.0912880
   4.4505740  29.1514280  27.0333220   5.7157520  15.4441240  30.7338870
   5.6546410  16.0363070  31.4834280   6.6557900  15.3367200  30.5889130
   8.3532080  15.1011300  30.3731160   8.9672490  15.4190590  29.7112240
   8.8981640  14.6159890  30.9927020  14.7707260  31.0002930  27.7793000
  14.2765540  31.3971800  27.0620130  14.1620550  30.3752140  28.1730280
   9.0940120  13.6643440  26.7000450   8.2199960  13.9978550  26.4973380
   8.9850870  13.1916620  27.5252320  10.0012100  15.8714310  28.0842170
   9.6725460  15.0566070  27.7043900  10.9494400  15.8284120  27.9607860
  12.4546710  31.6426350  25.0579740  11.9949680  32.3942160  24.6837760
  11.8259170  30.9232820  24.9994540   2.8842430  29.9514590  24.2327870
   3.4007450  29.3401950  23.7076130   3.5339810  30.4543370  24.7238880
   5.6237930  30.8423080  25.0596850   5.9115740  30.5877380  24.1829860
   6.1361150  30.2900440  25.6502420   6.8414940  14.5813280  25.6393360
   6.0586730  15.0558780  25.9190120   6.5477870  13.6768110  25.5306540
  11.3936010  15.2836380  23.6842450  11.8344100  15.2281480  22.8364050
  11.1243600  16.1994390  23.7552630  13.2574580  14.9151620  21.6951270
  13.1962980  13.9712840  21.5482290  14.0366610  15.0231710  22.2404730
   4.7269160  17.0000030  21.1509390   3.9143670  16.6256920  20.8105270
   5.2310800  16.2445110  21.4530580   9.2294140  13.6642480  22.3892460
   9.8323510  14.2362690  22.8640980   8.4887130  14.2281920  22.1666360
  12.3728740  14.0664040  17.6632740  12.5679370  14.9647490  17.9300170
  11.5858610  13.8351120  18.1565690   2.7518340  15.1499950  19.7554440
   2.1221080  14.4487260  19.9224570   2.2123480  15.9104080  19.5387600
   5.6910290  31.7639180  32.4265050   6.6177600  31.5283450  32.4701010
   5.6760720  32.5911180  31.9451080  13.9255350  31.3064750  19.4239300
  14.1007540  30.6202490  18.7800220  13.2276920  31.8311800  19.0315970
   2.8773900  14.4283930  32.1906930   2.5958170  14.9317530  31.4267750
   3.2593600  13.6305680  31.8249060   1.7683000  31.6959590  16.9774610
   2.5001820  31.4118870  16.4298500   2.0276670  31.4572870  17.8673990
   9.4789360  13.8437510  32.7687400   9.3654810  14.1632120  33.6638920
  10.2959100  14.2450020  32.4724680  12.2587850  30.9909040  32.2506090
  13.0513170  30.4958270  32.0432050  12.5521000  31.6699180  32.8581700
   8.3847510  21.8629980   3.1322140   8.3041560  20.9484590   2.8613850
   7.9711930  22.3597050   2.4261850   6.5165550  23.6409000   5.0131410
   5.7407650  23.1609440   5.3029980   7.1678480  22.9614650   4.8387570
  10.5372980  28.0469190   3.7930540  10.0754510  27.2756430   4.1217710
  11.3498530  28.0735260   4.2982990   6.7636290  30.3327200   3.4134530
   6.1447730  30.7884700   2.8428970   7.6188070  30.4878660   3.0124230
   5.9574540  26.3166190   5.0201570   5.8882820  25.3756130   4.8590700
   6.7194400  26.4067600   5.5924140   6.9879710  19.1236570   5.2470500
   7.3644530  18.2508450   5.1344170   6.8899220  19.4595270   4.3560940
  10.7703830  16.6187010   2.1798840  11.5913450  16.1283580   2.2224320
  10.8037910  17.2084670   2.9330680   2.9592450  20.4648570   5.0413120
   3.4670670  20.9629540   5.6818140   3.4905690  19.6883770   4.8652480
  15.0603380  18.6353760   8.7442470  14.3555550  19.0235470   8.2257580
  15.3261300  19.3304050   9.3463400   2.4931400  24.7442310   7.4850040
   2.1600780  25.3711230   8.1271110   2.6698080  25.2704190   6.7051710
  11.0065310  18.5587390   4.9526380  10.3020880  18.8472280   5.5329490
  11.3677470  19.3687500   4.5925940  12.6228090  28.1762520   7.2153860
  11.9391610  28.8461630   7.2070530  13.1622380  28.3743170   6.4498720
  14.0752230  18.0042180   5.3435590  13.1277140  18.0381160   5.4751020
  14.4002220  18.8181130   5.7284950   4.6071770  14.3039360   3.6391580
   4.9146750  13.7486250   2.9227080   3.6772470  14.4383820   3.4564570
  10.1586830  30.0206650   5.9299040  10.1713990  29.6168940   5.0621300
   9.6062050  30.7953940   5.8260470   9.5572270  24.9236490   7.2581650
   9.9741060  24.7096600   6.4235110  10.2812090  25.1809280   7.8290270
  13.5034370  23.3223710   7.3497890  12.6753000  23.3916800   6.8748020
  14.0984850  23.9078020   6.8813720  10.4676380  20.1093030   8.2952760
  10.0547560  20.9346740   8.5492750   9.7352330  19.5238070   8.1029120
   2.6009170  22.8952930   3.1571430   2.1966170  22.1830180   2.6617330
   2.6872290  22.5506170   4.0459470   3.0690870  26.5820490   5.3210640
   2.7719160  25.9765960   4.6418420   4.0190690  26.6197800   5.2100000
  11.1576480  30.1552360   8.9833740  10.6807040  30.9624550   8.7906350
  10.4738270  29.5030690   9.1359950   7.3109900  28.1091370   1.8540940
   7.7505810  28.8515700   1.4396330   7.2496790  28.3517940   2.7779900
   2.7860870  29.1337200  12.7560960   2.7576300  29.5380150  11.8889390
   2.6225840  28.2047560  12.5932560  14.7375690  29.9164300  14.0525130
  15.2135410  30.3947190  14.7314210  15.3582850  29.8481790  13.3270630
  14.1408940  27.1077150  11.2125140  14.2672000  26.8689030  10.2942320
  14.1830320  26.2761690  11.6847220   8.0025680  30.8105150   9.7819950
   8.5170350  30.7213160  10.5842380   7.1594760  31.1564850  10.0747860
   9.2456140  30.2310760   1.8450440   9.7013090  29.4500140   2.1589060
   9.5848660  30.9417580   2.3891620  13.9932950  19.1609610  12.1774880
  13.3777220  19.6689280  11.6490340  13.6729370  18.2607940  12.1200820
   6.0547270  18.0001500   9.6437070   5.5926640  18.2084520  10.4557010
   5.6525380  17.1860850   9.3407740  11.0551780  19.2210450  10.7733730
  10.2045370  18.9216200  11.0942800  10.8953570  19.4652460   9.8617550
   8.1501490  20.7212200  12.8732520   8.4754900  19.8875950  12.5334750
   8.9381820  21.2440720  13.0210850   3.8053360  15.6780310   5.8991350
   4.1025690  16.5843140   5.8183370   4.3538920  15.1899090   5.2850920
   3.9990890  21.1552130  12.4343270   3.9034490  20.2146860  12.2843670
   4.8422870  21.3767200  12.0391340   7.3954310  18.8993460   2.3976930
   7.7883880  19.2165660   1.5845620   7.7571160  18.0205340   2.5121450
   5.7046480  17.6500770  13.6573790   5.0144800  17.4572970  14.2919880
   6.4478780  17.9335410  14.1898090   7.9809450  21.4899210   6.4927710
   7.2490570  21.9986020   6.8417810   7.5833790  20.6729190   6.1916490
   4.4186840  18.1653410   4.8980200   4.4222900  17.7243360   4.0484740
   5.3137960  18.4870740   5.0052020   8.4435360  16.9432890   5.9050650
   8.4608100  17.3941540   6.7492500   8.1950940  16.0438530   6.1184090
  11.8706110  14.3565070  11.7437030  12.1951880  13.6254730  12.2695010
  11.9062620  14.0378710  10.8418020   4.7194810  22.2255190   6.6445610
   5.0864940  21.7513760   7.3906950   4.5299870  23.0996760   6.9853950
   2.5094180  21.2663830   8.9629820   2.2051250  22.1455810   9.1880180
   3.4640640  21.3263620   8.9987260  11.7963950  24.4690180   5.3523060
  12.5163070  24.9645470   4.9619170  11.5945770  23.7908070   4.7076930
   7.1782750  24.5399240  11.2392060   7.1120060  23.6194910  10.9849650
   6.5487890  24.6374680  11.9536700   7.1099480  27.3619810  10.9895860
   7.1244020  26.4300770  10.7714770   6.4024580  27.4479570  11.6285630
  13.3210690  24.0027150  10.3364440  12.5958880  24.5955930  10.1393830
  13.8486150  23.9950690   9.5377810   8.8510280  25.7287320   3.8348290
   9.2034100  25.1315450   3.1749660   7.9672610  25.4031550   4.0056540
   6.5433380  29.0037380   8.0836360   7.1875600  29.2096760   8.7609780
   6.9062820  28.2425780   7.6307210   7.8165460  27.0069730   6.8013810
   8.4587690  26.3062890   6.9145980   8.3414810  27.7868170   6.6210700
   9.5903080  27.8064630  10.0049870   9.9259320  28.3931320  10.6827790
   8.6703420  27.6757340  10.2347660   5.4191660  27.8555960  13.1737930
   5.0988530  27.1365200  13.7183620   4.7450020  28.5311030  13.2473990
   8.6345260  18.0882120   8.5374730   9.0026080  17.2677330   8.8654300
   7.7743460  18.1484010   8.9530380   5.5947250  20.7421710   8.7612700
   6.0932500  21.2167530   9.4264550   5.7370200  19.8185230   8.9682730
  12.8014110  16.9589670   9.6041090  12.2987710  17.6995070   9.9434900
  13.6170770  17.3473670   9.2877880  11.0936120  22.2022850   3.0502450
  10.1526260  22.2173080   3.2250140  11.4080190  21.4158810   3.4962750
  13.0961700  29.3731700   4.7256710  13.2209120  30.1962870   5.1980520
  13.9627260  29.1622430   4.3780860   8.4102140  26.7588850  13.5334830
   7.8040300  26.7820450  12.7930580   8.1056250  26.0271890  14.0702080
   9.8402510  30.4869140  12.1444240  10.7924260  30.4027160  12.0944480
   9.6930730  31.1510850  12.8178030   4.3473260  24.5453430  12.0630990
   3.5818930  25.1138430  11.9785660   4.5289220  24.2529640  11.1699220
  11.4896610  26.2758760  12.6206010  12.2306080  26.6134520  12.1173470
  10.7269290  26.4450820  12.0675780  10.1642270  24.3273590  11.1561220
  10.5783290  24.4818670  12.0051640   9.2293270  24.4528810  11.3187000
  10.6364440  21.6669750  13.1600370  11.2185210  20.9122070  13.0720850
  10.8126210  22.1977190  12.3831850   4.5197950  15.3839740   8.5044710
   4.0715250  15.4064000   7.6590260   3.8863150  14.9858760   9.1015010
   4.9257500  24.2794070   9.1257150   5.3445610  25.1226800   8.9533390
   4.0066130  24.4166110   8.8963930   7.2621400  22.0110250  10.5094990
   7.3817610  21.4151390  11.2489830   8.1215400  22.0479940  10.0896290
   9.6009300  22.5647440   9.0857500   9.0744520  23.0890060   8.4822640
   9.9440640  23.1974830   9.7167230   2.7764920  30.5847080  10.2414880
   2.2386010  31.3093140   9.9223580   3.0298880  30.1077420   9.4512220
   4.0290170  18.5531600  11.7670810   4.6189860  18.2447450  12.4548630
   3.2110410  18.0811350  11.9230710   8.8483600  18.1697410  12.0003830
   8.1599120  17.5078950  11.9353820   9.5689620  17.7235680  12.4452290
   5.6327130  31.8198290  10.5001530   5.5585830  32.7233430  10.8073900
   4.7305970  31.5010190  10.4723600  13.1606810  29.5160470  10.8294090
  12.5608800  29.5753030  10.0858010  13.2900710  28.5765450  10.9590940
  14.8624690  24.8575870   3.5139930  15.2333520  24.0743190   3.1075900
  15.5026620  25.5464970   3.3357230  11.8458450  26.2412450   8.9270250
  11.0318290  26.6709610   9.1896040  12.2532650  26.8530860   8.3139300
  13.1948850  21.3800650  10.4539470  12.9634940  21.1513400   9.5537420
  13.4553400  22.3000200  10.4084360  11.6336920  16.6057080  13.2319170
  12.5107100  16.6140480  13.6153170  11.6457760  15.8687920  12.6211520
  13.0800190  20.4586620   4.1207190  13.6037670  19.9649270   3.4897360
  13.6659610  20.5936980   4.8654760  13.2589910  20.5426490   7.6426740
  12.3092620  20.5090030   7.7571730  13.4402920  21.4526600   7.4076510
  13.9987320  18.3520920   2.5937280  13.8886600  18.1976960   3.5319550
  14.7594910  17.8241860   2.3512690  12.3453040  14.2915050   9.0520280
  12.9825260  14.9049190   9.4179470  12.4927930  14.3275710   8.1069510
  11.9034500  30.9931050   2.4538520  12.4993570  30.6715620   1.7772940
  12.1612650  30.5202870   3.2451790   3.5103100  28.9808550   8.2038870
   3.2694460  29.2483110   7.3169390   4.4505740  29.1514280   8.2589730
   5.7157520  15.4441240  11.9595380   5.6546410  16.0363070  12.7090790
   6.6557900  15.3367200  11.8145640   8.3532080  15.1011300  11.5987670
   8.9672490  15.4190590  10.9368750   8.8981640  14.6159890  12.2183530
  14.7707260  31.0002930   9.0049510  14.2765540  31.3971800   8.2876640
  14.1620550  30.3752140   9.3986790   9.0940120  13.6643440   7.9256960
   8.2199960  13.9978550   7.7229890   8.9850870  13.1916620   8.7508830
  10.0012100  15.8714310   9.3098680   9.6725460  15.0566070   8.9300410
  10.9494400  15.8284120   9.1864370  12.4546710  31.6426350   6.2836250
  11.9949680  32.3942160   5.9094270  11.8259170  30.9232820   6.2251050
   2.8842430  29.9514590   5.4584380   3.4007450  29.3401950   4.9332640
   3.5339810  30.4543370   5.9495390   5.6237930  30.8423080   6.2853360
   5.9115740  30.5877380   5.4086370   6.1361150  30.2900440   6.8758930
   6.8414940  14.5813280   6.8649870   6.0586730  15.0558780   7.1446630
   6.5477870  13.6768110   6.7563050  11.3936010  15.2836380   4.9098960
  11.8344100  15.2281480   4.0620560  11.1243600  16.1994390   4.9809140
  13.2574580  14.9151620   2.9207780  13.1962980  13.9712840   2.7738800
  14.0366610  15.0231710   3.4661240   4.7269160  17.0000030   2.3765900
   3.9143670  16.6256920   2.0361780   5.2310800  16.2445110   2.6787090
   9.2294140  13.6642480   3.6148970   9.8323510  14.2362690   4.0897490
   8.4887130  14.2281920   3.3922870   5.6910290  31.7639180  13.6521560
   6.6177600  31.5283450  13.6957520   5.6760720  32.5911180  13.1707590
   2.8773900  14.4283930  13.4163440   2.5958170  14.9317530  12.6524260
   3.2593600  13.6305680  13.0505570   9.4789360  13.8437510  13.9943910
   9.3654810  14.1632120  14.8895430  10.2959100  14.2450020  13.6981190
  12.2587850  30.9909040  13.4762600  13.0513170  30.4958270  13.2688560
  12.5521000  31.6699180  14.0838210   8.3847510   3.0886490  78.2296100
   8.3041560   2.1741100  77.9587810   7.9711930   3.5853560  77.5235810
   6.5165550   4.8665510  80.1105370   5.7407650   4.3865950  80.4003940
   7.1678480   4.1871160  79.9361530  10.5372980   9.2725700  78.8904500
  10.0754510   8.5012940  79.2191670  11.3498530   9.2991770  79.3956950
   6.7636290  11.5583710  78.5108490   6.1447730  12.0141210  77.9402930
   7.6188070  11.7135170  78.1098190   5.9574540   7.5422700  80.1175530
   5.8882820   6.6012640  79.9564660   6.7194400   7.6324110  80.6898100
   7.6299640   6.4422950  75.9040400   7.0116910   6.9072400  75.3403120
   8.1422890   7.1350430  76.3209910   2.4931400   5.9698820  82.5824000
   2.1600780   6.5967740  83.2245070   2.6698080   6.4960700  81.8025670
  12.6228090   9.4019030  82.3127820  11.9391610  10.0718140  82.3044490
  13.1622380   9.5999680  81.5472680  10.1586830  11.2463160  81.0273000
  10.1713990  10.8425450  80.1595260   9.6062050  12.0210450  80.9234430
  11.4532250   7.9679380  76.1163170  11.3428580   7.0253710  76.2412590
  11.4500500   8.3295020  77.0025930   9.5572270   6.1493000  82.3555610
   9.9741060   5.9353110  81.5209070  10.2812090   6.4065790  82.9264230
   6.9952530   3.5944700  75.4725660   6.0681810   3.5282080  75.7014130
   7.1477350   4.5324830  75.3580900  13.5034370   4.5480220  82.4471850
  12.6753000   4.6173310  81.9721980  14.0984850   5.1334530  81.9787680
  11.0249820   5.1565000  75.9760910  10.4062240   4.8184550  75.3287210
  11.0074270   4.5124760  76.6840100   2.6009170   4.1209440  78.2545390
   2.1966170   3.4086690  77.7591290   2.6872290   3.7762680  79.1433430
   3.0690870   7.8077000  80.4184600   2.7719160   7.2022470  79.7392380
   4.0190690   7.8454310  80.3073960   9.2014520   4.3951810  72.9833660
   9.6407800   3.5574240  72.8371480   9.9142940   5.0281210  73.0697800
   7.3109900   9.3347880  76.9514900   7.7505810  10.0772210  76.5370290
   7.2496790   9.5774450  77.8753860   9.9780080  12.3217000  74.3077910
   9.8181220  12.0319940  75.2059740   9.8126790  11.5457130  73.7723140
   2.4568460  12.1015530  76.0849530   2.2810940  11.1851070  75.8717330
   1.6024200  12.4602820  76.3247330   9.6806210   9.8304560  72.8675910
   8.9871370   9.8281850  72.2078190  10.4229070   9.4063880  72.4370080
   9.2456140  11.4567270  76.9424400   9.7013090  10.6756650  77.2563020
   9.5848660  12.1674090  77.4865580   7.9809450   2.7155720  81.5901670
   7.2490570   3.2242530  81.9391770   7.5833790   1.8985700  81.2890450
   3.4928490   2.7023140  72.3844220   2.9245390   2.2541390  71.7580130
   4.2017490   3.0615920  71.8509370   4.7194810   3.4511700  81.7419570
   5.0864940   2.9770270  82.4880910   4.5299870   4.3253270  82.0827910
  11.7963950   5.6946690  80.4497020  12.5163070   6.1901980  80.0593130
  11.5945770   5.0164580  79.8050890   5.9682870   7.6327990  73.5676740
   6.3098570   8.3770220  73.0720060   5.1395580   7.9459110  73.9301570
  12.2436550   2.7716140  72.3568430  12.1600270   3.2030360  71.5064870
  12.9630740   3.2314490  72.7895250  13.2723800   9.6258400  75.0850560
  12.6299960   8.9714020  75.3594280  12.8854460  10.0313490  74.3091230
   8.8510280   6.9543830  78.9322250   9.2034100   6.3571960  78.2723620
   7.9672610   6.6288060  79.1030500   4.9373560   7.7141520  76.3392660
   5.6244690   8.2610730  76.7200250   4.1505980   8.2582250  76.3742270
   4.2400770   4.7187550  75.9518020   4.6963550   5.5292800  76.1778210
   3.8888980   4.4010690  76.7836510   7.8165460   8.2326240  81.8987770
   8.4587690   7.5319400  82.0119940   8.3414810   9.0124680  81.7184660
  11.6621180   8.5174860  71.6226910  11.4358760   7.8005300  72.2151550
  11.2717380   8.2687300  70.7848660  11.2437430   6.4346800  73.2841070
  10.9559130   6.8959490  74.0718950  12.0389600   5.9744570  73.5525290
   3.4605830   9.9272920  73.2145040   3.4515930  10.6602610  72.5989550
   2.5404190   9.6804500  73.3072000   6.4465430   9.9901160  71.8770230
   6.5477410   9.7865150  70.9472210   5.5467170   9.7359440  72.0818010
   5.0883540  12.5087480  76.5717900   5.3425040  12.4708870  75.6497270
   4.1396020  12.3820810  76.5646150  11.0936120   3.4279360  78.1476410
  10.1526260   3.4429590  78.3224100  11.4080190   2.6415320  78.5936710
  13.0961700  10.5988210  79.8230670  13.2209120  11.4219380  80.2954480
  13.9627260  10.3878940  79.4754820   3.6781540  11.8649730  71.3173370
   4.4710150  12.1538560  70.8655160   3.1585890  11.4341900  70.6385850
  12.7311710  11.0919860  72.7410110  12.4453220  10.6785000  71.9264290
  12.5331260  12.0207570  72.6210630   4.1958940   7.0853140  71.1815720
   4.0909580   6.4705490  71.9077100   4.0283160   6.5619030  70.3978730
   7.4361670   6.1473170  71.7857710   6.8871770   6.5942470  72.4300450
   8.0580930   5.6422420  72.3095380   3.1036790   5.1064090  73.6823010
   3.5253210   4.9403960  74.5254400   3.2287630   4.2964320  73.1878150
   5.6164430   4.1301700  70.9300110   6.1370090   3.4150720  70.5641260
   6.2632830   4.7687570  71.2300620   6.1812460  12.2113310  73.2201850
   7.0763250  12.5498280  73.2420610   6.2130090  11.4892720  72.5926130
  14.4008260   8.4834800  71.2637760  13.5701220   8.5511450  71.7344990
  14.5780090   9.3738920  70.9604620  13.8564720   5.2282280  73.7671960
  14.6183630   5.7978930  73.8731650  13.8719090   4.6609480  74.5380270
  14.8624690   6.0832380  78.6113890  15.2333520   5.2999700  78.2049860
  15.5026620   6.7721480  78.4331190  13.9083890   5.5216650  70.9244480
  14.1832730   6.4295530  70.7963700  13.7194630   5.4579180  71.8606470
  13.8049230   3.4585640  75.9173910  13.4292830   2.6913570  75.4855200
  13.0752350   3.8408340  76.4048840  13.2589910   1.7683000  82.7400700
  12.3092620   1.7346540  82.8545690  13.4402920   2.6783110  82.5050470
  11.9034500  12.2187560  77.5512480  12.4993570  11.8972130  76.8746900
  12.1612650  11.7459380  78.3425750  12.4546710  12.8682860  81.3810210
  11.9949680  13.6198670  81.0068230  11.8259170  12.1489330  81.3225010
   2.8842430  11.1771100  80.5558340   3.4007450  10.5658460  80.0306600
   3.5339810  11.6799880  81.0469350   5.6237930  12.0679590  81.3827320
   5.9115740  11.8133890  80.5060330   6.1361150  11.5156950  81.9732890
  13.9255350  12.5321260  75.7469770  14.1007540  11.8459000  75.1030690
  13.2276920  13.0568310  75.3546440   1.7683000  12.9216100  73.3005080
   2.5001820  12.6375380  72.7528970   2.0276670  12.6829380  74.1904460
   8.3847510   3.0886490  59.4552610   8.3041560   2.1741100  59.1844320
   7.9711930   3.5853560  58.7492320   6.5165550   4.8665510  61.3361880
   5.7407650   4.3865950  61.6260450   7.1678480   4.1871160  61.1618040
  10.5372980   9.2725700  60.1161010  10.0754510   8.5012940  60.4448180
  11.3498530   9.2991770  60.6213460   6.7636290  11.5583710  59.7365000
   6.1447730  12.0141210  59.1659440   7.6188070  11.7135170  59.3354700
   5.9574540   7.5422700  61.3432040   5.8882820   6.6012640  61.1821170
   6.7194400   7.6324110  61.9154610   7.6299640   6.4422950  57.1296910
   7.0116910   6.9072400  56.5659630   8.1422890   7.1350430  57.5466420
   2.4931400   5.9698820  63.8080510   2.1600780   6.5967740  64.4501580
   2.6698080   6.4960700  63.0282180  12.6228090   9.4019030  63.5384330
  11.9391610  10.0718140  63.5301000  13.1622380   9.5999680  62.7729190
  10.1586830  11.2463160  62.2529510  10.1713990  10.8425450  61.3851770
   9.6062050  12.0210450  62.1490940  11.4532250   7.9679380  57.3419680
  11.3428580   7.0253710  57.4669100  11.4500500   8.3295020  58.2282440
   9.5572270   6.1493000  63.5812120   9.9741060   5.9353110  62.7465580
  10.2812090   6.4065790  64.1520740   6.9952530   3.5944700  56.6982170
   6.0681810   3.5282080  56.9270640   7.1477350   4.5324830  56.5837410
  13.5034370   4.5480220  63.6728360  12.6753000   4.6173310  63.1978490
  14.0984850   5.1334530  63.2044190  11.0249820   5.1565000  57.2017420
  10.4062240   4.8184550  56.5543720  11.0074270   4.5124760  57.9096610
   2.6009170   4.1209440  59.4801900   2.1966170   3.4086690  58.9847800
   2.6872290   3.7762680  60.3689940   3.0690870   7.8077000  61.6441110
   2.7719160   7.2022470  60.9648890   4.0190690   7.8454310  61.5330470
  11.1576480  11.3808870  65.3064210  10.6807040  12.1881060  65.1136820
  10.4738270  10.7287200  65.4590420   9.2014520   4.3951810  54.2090170
   9.6407800   3.5574240  54.0627990   9.9142940   5.0281210  54.2954310
   7.3109900   9.3347880  58.1771410   7.7505810  10.0772210  57.7626800
   7.2496790   9.5774450  59.1010370   2.7860870  10.3593710  69.0791430
   2.7576300  10.7636660  68.2119860   2.6225840   9.4304070  68.9163030
  14.7375690  11.1420810  70.3755600  15.2135410  11.6203700  71.0544680
  15.3582850  11.0738300  69.6501100  14.1408940   8.3333660  67.5355610
  14.2672000   8.0945540  66.6172790  14.1830320   7.5018200  68.0077690
   8.0025680  12.0361660  66.1050420   8.5170350  11.9469670  66.9072850
   7.1594760  12.3821360  66.3978330   9.9780080  12.3217000  55.5334420
   9.8181220  12.0319940  56.4316250   9.8126790  11.5457130  54.9979650
   2.4568460  12.1015530  57.3106040   2.2810940  11.1851070  57.0973840
   1.6024200  12.4602820  57.5503840   9.6806210   9.8304560  54.0932420
   8.9871370   9.8281850  53.4334700  10.4229070   9.4063880  53.6626590
   9.2456140  11.4567270  58.1680910   9.7013090  10.6756650  58.4819530
   9.5848660  12.1674090  58.7122090   7.9809450   2.7155720  62.8158180
   7.2490570   3.2242530  63.1648280   7.5833790   1.8985700  62.5146960
   3.4928490   2.7023140  53.6100730   2.9245390   2.2541390  52.9836640
   4.2017490   3.0615920  53.0765880   4.7194810   3.4511700  62.9676080
   5.0864940   2.9770270  63.7137420   4.5299870   4.3253270  63.3084420
   2.5094180   2.4920340  65.2860290   2.2051250   3.3712320  65.5110650
   3.4640640   2.5520130  65.3217730  11.7963950   5.6946690  61.6753530
  12.5163070   6.1901980  61.2849640  11.5945770   5.0164580  61.0307400
   7.1782750   5.7655750  67.5622530   7.1120060   4.8451420  67.3080120
   6.5487890   5.8631190  68.2767170   5.9682870   7.6327990  54.7933250
   6.3098570   8.3770220  54.2976570   5.1395580   7.9459110  55.1558080
   7.1099480   8.5876320  67.3126330   7.1244020   7.6557280  67.0945240
   6.4024580   8.6736080  67.9516100  12.2436550   2.7716140  53.5824940
  12.1600270   3.2030360  52.7321380  12.9630740   3.2314490  54.0151760
  13.3210690   5.2283660  66.6594910  12.5958880   5.8212440  66.4624300
  13.8486150   5.2207200  65.8608280  13.2723800   9.6258400  56.3107070
  12.6299960   8.9714020  56.5850790  12.8854460  10.0313490  55.5347740
   8.8510280   6.9543830  60.1578760   9.2034100   6.3571960  59.4980130
   7.9672610   6.6288060  60.3287010   4.9373560   7.7141520  57.5649170
   5.6244690   8.2610730  57.9456760   4.1505980   8.2582250  57.5998780
   4.2400770   4.7187550  57.1774530   4.6963550   5.5292800  57.4034720
   3.8888980   4.4010690  58.0093020   6.5433380  10.2293890  64.4066830
   7.1875600  10.4353270  65.0840250   6.9062820   9.4682290  63.9537680
   7.8165460   8.2326240  63.1244280   8.4587690   7.5319400  63.2376450
   8.3414810   9.0124680  62.9441170  11.6621180   8.5174860  52.8483420
  11.4358760   7.8005300  53.4408060  11.2717380   8.2687300  52.0105170
   9.5903080   9.0321140  66.3280340   9.9259320   9.6187830  67.0058260
   8.6703420   8.9013850  66.5578130  11.2437430   6.4346800  54.5097580
  10.9559130   6.8959490  55.2975460  12.0389600   5.9744570  54.7781800
   5.4191660   9.0812470  69.4968400   5.0988530   8.3621710  70.0414090
   4.7450020   9.7567540  69.5704460   3.4605830   9.9272920  54.4401550
   3.4515930  10.6602610  53.8246060   2.5404190   9.6804500  54.5328510
   6.4465430   9.9901160  53.1026740   6.5477410   9.7865150  52.1728720
   5.5467170   9.7359440  53.3074520   5.0883540  12.5087480  57.7974410
   5.3425040  12.4708870  56.8753780   4.1396020  12.3820810  57.7902660
  11.0936120   3.4279360  59.3732920  10.1526260   3.4429590  59.5480610
  11.4080190   2.6415320  59.8193220  13.0961700  10.5988210  61.0487180
  13.2209120  11.4219380  61.5210990  13.9627260  10.3878940  60.7011330
   3.6781540  11.8649730  52.5429880   4.4710150  12.1538560  52.0911670
   3.1585890  11.4341900  51.8642360   8.4102140   7.9845360  69.8565300
   7.8040300   8.0076960  69.1161050   8.1056250   7.2528400  70.3932550
   9.8402510  11.7125650  68.4674710  10.7924260  11.6283670  68.4174950
   9.6930730  12.3767360  69.1408500  12.7311710  11.0919860  53.9666620
  12.4453220  10.6785000  53.1520800  12.5331260  12.0207570  53.8467140
   4.1958940   7.0853140  52.4072230   4.0909580   6.4705490  53.1333610
   4.0283160   6.5619030  51.6235240   4.3473260   5.7709940  68.3861460
   3.5818930   6.3394940  68.3016130   4.5289220   5.4786150  67.4929690
   7.4361670   6.1473170  53.0114220   6.8871770   6.5942470  53.6556960
   8.0580930   5.6422420  53.5351890  11.4896610   7.5015270  68.9436480
  12.2306080   7.8391030  68.4403940  10.7269290   7.6707330  68.3906250
   3.1036790   5.1064090  54.9079520   3.5253210   4.9403960  55.7510910
   3.2287630   4.2964320  54.4134660   5.6164430   4.1301700  52.1556620
   6.1370090   3.4150720  51.7897770   6.2632830   4.7687570  52.4557130
  10.1642270   5.5530100  67.4791690  10.5783290   5.7075180  68.3282110
   9.2293270   5.6785320  67.6417470  10.6364440   2.8926260  69.4830840
  11.2185210   2.1378580  69.3951320  10.8126210   3.4233700  68.7062320
   4.9257500   5.5050580  65.4487620   5.3445610   6.3483310  65.2763860
   4.0066130   5.6422620  65.2194400   7.2621400   3.2366760  66.8325460
   7.3817610   2.6407900  67.5720300   8.1215400   3.2736450  66.4126760
   9.6009300   3.7903950  65.4087970   9.0744520   4.3146570  64.8053110
   9.9440640   4.4231340  66.0397700   2.7764920  11.8103590  66.5645350
   2.2386010  12.5349650  66.2454050   3.0298880  11.3333930  65.7742690
   5.6327130  13.0454800  66.8232000   5.5585830  13.9489940  67.1304370
   4.7305970  12.7266700  66.7954070   6.1812460  12.2113310  54.4458360
   7.0763250  12.5498280  54.4677120   6.2130090  11.4892720  53.8182640
  13.1606810  10.7416980  67.1524560  12.5608800  10.8009540  66.4088480
  13.2900710   9.8021960  67.2821410  14.4008260   8.4834800  52.4894270
  13.5701220   8.5511450  52.9601500  14.5780090   9.3738920  52.1861130
  13.8564720   5.2282280  54.9928470  14.6183630   5.7978930  55.0988160
  13.8719090   4.6609480  55.7636780  14.8624690   6.0832380  59.8370400
  15.2333520   5.2999700  59.4306370  15.5026620   6.7721480  59.6587700
  11.8458450   7.4668960  65.2500720  11.0318290   7.8966120  65.5126510
  12.2532650   8.0787370  64.6369770  13.9083890   5.5216650  52.1500990
  14.1832730   6.4295530  52.0220210  13.7194630   5.4579180  53.0862980
  13.8049230   3.4585640  57.1430420  13.4292830   2.6913570  56.7111710
  13.0752350   3.8408340  57.6305350  13.1948850   2.6057160  66.7769940
  12.9634940   2.3769910  65.8767890  13.4553400   3.5256710  66.7314830
  13.2589910   1.7683000  63.9657210  12.3092620   1.7346540  64.0802200
  13.4402920   2.6783110  63.7306980  11.9034500  12.2187560  58.7768990
  12.4993570  11.8972130  58.1003410  12.1612650  11.7459380  59.5682260
   3.5103100  10.2065060  64.5269340   3.2694460  10.4739620  63.6399860
   4.4505740  10.3770790  64.5820200  14.7707260  12.2259440  65.3279980
  14.2765540  12.6228310  64.6107110  14.1620550  11.6008650  65.7217260
  12.4546710  12.8682860  62.6066720  11.9949680  13.6198670  62.2324740
  11.8259170  12.1489330  62.5481520   2.8842430  11.1771100  61.7814850
   3.4007450  10.5658460  61.2563110   3.5339810  11.6799880  62.2725860
   5.6237930  12.0679590  62.6083830   5.9115740  11.8133890  61.7316840
   6.1361150  11.5156950  63.1989400   5.6910290  12.9895690  69.9752030
   6.6177600  12.7539960  70.0187990   5.6760720  13.8167690  69.4938060
  13.9255350  12.5321260  56.9726280  14.1007540  11.8459000  56.3287200
  13.2276920  13.0568310  56.5802950   1.7683000  12.9216100  54.5261590
   2.5001820  12.6375380  53.9785480   2.0276670  12.6829380  55.4160970
  12.2587850  12.2165550  69.7993070  13.0513170  11.7214780  69.5919030
  12.5521000  12.8955690  70.4068680   8.3847510   3.0886490  40.6809120
   8.3041560   2.1741100  40.4100830   7.9711930   3.5853560  39.9748830
   6.5165550   4.8665510  42.5618390   5.7407650   4.3865950  42.8516960
   7.1678480   4.1871160  42.3874550  10.5372980   9.2725700  41.3417520
  10.0754510   8.5012940  41.6704690  11.3498530   9.2991770  41.8469970
   6.7636290  11.5583710  40.9621510   6.1447730  12.0141210  40.3915950
   7.6188070  11.7135170  40.5611210   5.9574540   7.5422700  42.5688550
   5.8882820   6.6012640  42.4077680   6.7194400   7.6324110  43.1411120
   7.6299640   6.4422950  38.3553420   7.0116910   6.9072400  37.7916140
   8.1422890   7.1350430  38.7722930   2.4931400   5.9698820  45.0337020
   2.1600780   6.5967740  45.6758090   2.6698080   6.4960700  44.2538690
  12.6228090   9.4019030  44.7640840  11.9391610  10.0718140  44.7557510
  13.1622380   9.5999680  43.9985700  10.1586830  11.2463160  43.4786020
  10.1713990  10.8425450  42.6108280   9.6062050  12.0210450  43.3747450
  11.4532250   7.9679380  38.5676190  11.3428580   7.0253710  38.6925610
  11.4500500   8.3295020  39.4538950   9.5572270   6.1493000  44.8068630
   9.9741060   5.9353110  43.9722090  10.2812090   6.4065790  45.3777250
   6.9952530   3.5944700  37.9238680   6.0681810   3.5282080  38.1527150
   7.1477350   4.5324830  37.8093920  13.5034370   4.5480220  44.8984870
  12.6753000   4.6173310  44.4235000  14.0984850   5.1334530  44.4300700
  11.0249820   5.1565000  38.4273930  10.4062240   4.8184550  37.7800230
  11.0074270   4.5124760  39.1353120   2.6009170   4.1209440  40.7058410
   2.1966170   3.4086690  40.2104310   2.6872290   3.7762680  41.5946450
   3.0690870   7.8077000  42.8697620   2.7719160   7.2022470  42.1905400
   4.0190690   7.8454310  42.7586980  11.1576480  11.3808870  46.5320720
  10.6807040  12.1881060  46.3393330  10.4738270  10.7287200  46.6846930
   9.2014520   4.3951810  35.4346680   9.6407800   3.5574240  35.2884500
   9.9142940   5.0281210  35.5210820   7.3109900   9.3347880  39.4027920
   7.7505810  10.0772210  38.9883310   7.2496790   9.5774450  40.3266880
   2.7860870  10.3593710  50.3047940   2.7576300  10.7636660  49.4376370
   2.6225840   9.4304070  50.1419540  14.7375690  11.1420810  51.6012110
  15.2135410  11.6203700  52.2801190  15.3582850  11.0738300  50.8757610
  14.1408940   8.3333660  48.7612120  14.2672000   8.0945540  47.8429300
  14.1830320   7.5018200  49.2334200   8.0025680  12.0361660  47.3306930
   8.5170350  11.9469670  48.1329360   7.1594760  12.3821360  47.6234840
   9.9780080  12.3217000  36.7590930   9.8181220  12.0319940  37.6572760
   9.8126790  11.5457130  36.2236160   2.4568460  12.1015530  38.5362550
   2.2810940  11.1851070  38.3230350   1.6024200  12.4602820  38.7760350
   9.6806210   9.8304560  35.3188930   8.9871370   9.8281850  34.6591210
  10.4229070   9.4063880  34.8883100   9.2456140  11.4567270  39.3937420
   9.7013090  10.6756650  39.7076040   9.5848660  12.1674090  39.9378600
   7.9809450   2.7155720  44.0414690   7.2490570   3.2242530  44.3904790
   7.5833790   1.8985700  43.7403470   3.4928490   2.7023140  34.8357240
   2.9245390   2.2541390  34.2093150   4.2017490   3.0615920  34.3022390
   4.7194810   3.4511700  44.1932590   5.0864940   2.9770270  44.9393930
   4.5299870   4.3253270  44.5340930   2.5094180   2.4920340  46.5116800
   2.2051250   3.3712320  46.7367160   3.4640640   2.5520130  46.5474240
  11.7963950   5.6946690  42.9010040  12.5163070   6.1901980  42.5106150
  11.5945770   5.0164580  42.2563910   7.1782750   5.7655750  48.7879040
   7.1120060   4.8451420  48.5336630   6.5487890   5.8631190  49.5023680
   5.9682870   7.6327990  36.0189760   6.3098570   8.3770220  35.5233080
   5.1395580   7.9459110  36.3814590   7.1099480   8.5876320  48.5382840
   7.1244020   7.6557280  48.3201750   6.4024580   8.6736080  49.1772610
  12.2436550   2.7716140  34.8081450  12.1600270   3.2030360  33.9577890
  12.9630740   3.2314490  35.2408270  13.3210690   5.2283660  47.8851420
  12.5958880   5.8212440  47.6880810  13.8486150   5.2207200  47.0864790
  13.2723800   9.6258400  37.5363580  12.6299960   8.9714020  37.8107300
  12.8854460  10.0313490  36.7604250   8.8510280   6.9543830  41.3835270
   9.2034100   6.3571960  40.7236640   7.9672610   6.6288060  41.5543520
   4.9373560   7.7141520  38.7905680   5.6244690   8.2610730  39.1713270
   4.1505980   8.2582250  38.8255290   4.2400770   4.7187550  38.4031040
   4.6963550   5.5292800  38.6291230   3.8888980   4.4010690  39.2349530
   6.5433380  10.2293890  45.6323340   7.1875600  10.4353270  46.3096760
   6.9062820   9.4682290  45.1794190   7.8165460   8.2326240  44.3500790
   8.4587690   7.5319400  44.4632960   8.3414810   9.0124680  44.1697680
  11.6621180   8.5174860  34.0739930  11.4358760   7.8005300  34.6664570
  11.2717380   8.2687300  33.2361680   9.5903080   9.0321140  47.5536850
   9.9259320   9.6187830  48.2314770   8.6703420   8.9013850  47.7834640
  11.2437430   6.4346800  35.7354090  10.9559130   6.8959490  36.5231970
  12.0389600   5.9744570  36.0038310   5.4191660   9.0812470  50.7224910
   5.0988530   8.3621710  51.2670600   4.7450020   9.7567540  50.7960970
   3.4605830   9.9272920  35.6658060   3.4515930  10.6602610  35.0502570
   2.5404190   9.6804500  35.7585020   6.4465430   9.9901160  34.3283250
   6.5477410   9.7865150  33.3985230   5.5467170   9.7359440  34.5331030
   5.0883540  12.5087480  39.0230920   5.3425040  12.4708870  38.1010290
   4.1396020  12.3820810  39.0159170  11.0936120   3.4279360  40.5989430
  10.1526260   3.4429590  40.7737120  11.4080190   2.6415320  41.0449730
  13.0961700  10.5988210  42.2743690  13.2209120  11.4219380  42.7467500
  13.9627260  10.3878940  41.9267840   3.6781540  11.8649730  33.7686390
   4.4710150  12.1538560  33.3168180   3.1585890  11.4341900  33.0898870
   8.4102140   7.9845360  51.0821810   7.8040300   8.0076960  50.3417560
   8.1056250   7.2528400  51.6189060   9.8402510  11.7125650  49.6931220
  10.7924260  11.6283670  49.6431460   9.6930730  12.3767360  50.3665010
  12.7311710  11.0919860  35.1923130  12.4453220  10.6785000  34.3777310
  12.5331260  12.0207570  35.0723650   4.1958940   7.0853140  33.6328740
   4.0909580   6.4705490  34.3590120   4.0283160   6.5619030  32.8491750
   4.3473260   5.7709940  49.6117970   3.5818930   6.3394940  49.5272640
   4.5289220   5.4786150  48.7186200   7.4361670   6.1473170  34.2370730
   6.8871770   6.5942470  34.8813470   8.0580930   5.6422420  34.7608400
  11.4896610   7.5015270  50.1692990  12.2306080   7.8391030  49.6660450
  10.7269290   7.6707330  49.6162760   3.1036790   5.1064090  36.1336030
   3.5253210   4.9403960  36.9767420   3.2287630   4.2964320  35.6391170
   5.6164430   4.1301700  33.3813130   6.1370090   3.4150720  33.0154280
   6.2632830   4.7687570  33.6813640  10.1642270   5.5530100  48.7048200
  10.5783290   5.7075180  49.5538620   9.2293270   5.6785320  48.8673980
  10.6364440   2.8926260  50.7087350  11.2185210   2.1378580  50.6207830
  10.8126210   3.4233700  49.9318830   4.9257500   5.5050580  46.6744130
   5.3445610   6.3483310  46.5020370   4.0066130   5.6422620  46.4450910
   7.2621400   3.2366760  48.0581970   7.3817610   2.6407900  48.7976810
   8.1215400   3.2736450  47.6383270   9.6009300   3.7903950  46.6344480
   9.0744520   4.3146570  46.0309620   9.9440640   4.4231340  47.2654210
   2.7764920  11.8103590  47.7901860   2.2386010  12.5349650  47.4710560
   3.0298880  11.3333930  46.9999200   5.6327130  13.0454800  48.0488510
   5.5585830  13.9489940  48.3560880   4.7305970  12.7266700  48.0210580
   6.1812460  12.2113310  35.6714870   7.0763250  12.5498280  35.6933630
   6.2130090  11.4892720  35.0439150  13.1606810  10.7416980  48.3781070
  12.5608800  10.8009540  47.6344990  13.2900710   9.8021960  48.5077920
  14.4008260   8.4834800  33.7150780  13.5701220   8.5511450  34.1858010
  14.5780090   9.3738920  33.4117640  13.8564720   5.2282280  36.2184980
  14.6183630   5.7978930  36.3244670  13.8719090   4.6609480  36.9893290
  14.8624690   6.0832380  41.0626910  15.2333520   5.2999700  40.6562880
  15.5026620   6.7721480  40.8844210  11.8458450   7.4668960  46.4757230
  11.0318290   7.8966120  46.7383020  12.2532650   8.0787370  45.8626280
  13.9083890   5.5216650  33.3757500  14.1832730   6.4295530  33.2476720
  13.7194630   5.4579180  34.3119490  13.8049230   3.4585640  38.3686930
  13.4292830   2.6913570  37.9368220  13.0752350   3.8408340  38.8561860
  13.1948850   2.6057160  48.0026450  12.9634940   2.3769910  47.1024400
  13.4553400   3.5256710  47.9571340  13.2589910   1.7683000  45.1913720
  12.3092620   1.7346540  45.3058710  13.4402920   2.6783110  44.9563490
  11.9034500  12.2187560  40.0025500  12.4993570  11.8972130  39.3259920
  12.1612650  11.7459380  40.7938770   3.5103100  10.2065060  45.7525850
   3.2694460  10.4739620  44.8656370   4.4505740  10.3770790  45.8076710
  14.7707260  12.2259440  46.5536490  14.2765540  12.6228310  45.8363620
  14.1620550  11.6008650  46.9473770  12.4546710  12.8682860  43.8323230
  11.9949680  13.6198670  43.4581250  11.8259170  12.1489330  43.7738030
   2.8842430  11.1771100  43.0071360   3.4007450  10.5658460  42.4819620
   3.5339810  11.6799880  43.4982370   5.6237930  12.0679590  43.8340340
   5.9115740  11.8133890  42.9573350   6.1361150  11.5156950  44.4245910
   5.6910290  12.9895690  51.2008540   6.6177600  12.7539960  51.2444500
   5.6760720  13.8167690  50.7194570  13.9255350  12.5321260  38.1982790
  14.1007540  11.8459000  37.5543710  13.2276920  13.0568310  37.8059460
   1.7683000  12.9216100  35.7518100   2.5001820  12.6375380  35.2041990
   2.0276670  12.6829380  36.6417480  12.2587850  12.2165550  51.0249580
  13.0513170  11.7214780  50.8175540  12.5521000  12.8955690  51.6325190
   8.3847510   3.0886490  21.9065630   8.3041560   2.1741100  21.6357340
   7.9711930   3.5853560  21.2005340   6.5165550   4.8665510  23.7874900
   5.7407650   4.3865950  24.0773470   7.1678480   4.1871160  23.6131060
  10.5372980   9.2725700  22.5674030  10.0754510   8.5012940  22.8961200
  11.3498530   9.2991770  23.0726480   6.7636290  11.5583710  22.1878020
   6.1447730  12.0141210  21.6172460   7.6188070  11.7135170  21.7867720
   5.9574540   7.5422700  23.7945060   5.8882820   6.6012640  23.6334190
   6.7194400   7.6324110  24.3667630   7.6299640   6.4422950  19.5809930
   7.0116910   6.9072400  19.0172650   8.1422890   7.1350430  19.9979440
   2.4931400   5.9698820  26.2593530   2.1600780   6.5967740  26.9014600
   2.6698080   6.4960700  25.4795200  12.6228090   9.4019030  25.9897350
  11.9391610  10.0718140  25.9814020  13.1622380   9.5999680  25.2242210
  10.1586830  11.2463160  24.7042530  10.1713990  10.8425450  23.8364790
   9.6062050  12.0210450  24.6003960  11.4532250   7.9679380  19.7932700
  11.3428580   7.0253710  19.9182120  11.4500500   8.3295020  20.6795460
   9.5572270   6.1493000  26.0325140   9.9741060   5.9353110  25.1978600
  10.2812090   6.4065790  26.6033760   6.9952530   3.5944700  19.1495190
   6.0681810   3.5282080  19.3783660   7.1477350   4.5324830  19.0350430
  13.5034370   4.5480220  26.1241380  12.6753000   4.6173310  25.6491510
  14.0984850   5.1334530  25.6557210  11.0249820   5.1565000  19.6530440
  10.4062240   4.8184550  19.0056740  11.0074270   4.5124760  20.3609630
   2.6009170   4.1209440  21.9314920   2.1966170   3.4086690  21.4360820
   2.6872290   3.7762680  22.8202960   3.0690870   7.8077000  24.0954130
   2.7719160   7.2022470  23.4161910   4.0190690   7.8454310  23.9843490
  11.1576480  11.3808870  27.7577230  10.6807040  12.1881060  27.5649840
  10.4738270  10.7287200  27.9103440   9.2014520   4.3951810  16.6603190
   9.6407800   3.5574240  16.5141010   9.9142940   5.0281210  16.7467330
   7.3109900   9.3347880  20.6284430   7.7505810  10.0772210  20.2139820
   7.2496790   9.5774450  21.5523390   2.7860870  10.3593710  31.5304450
   2.7576300  10.7636660  30.6632880   2.6225840   9.4304070  31.3676050
  14.7375690  11.1420810  32.8268620  15.2135410  11.6203700  33.5057700
  15.3582850  11.0738300  32.1014120  14.1408940   8.3333660  29.9868630
  14.2672000   8.0945540  29.0685810  14.1830320   7.5018200  30.4590710
   8.0025680  12.0361660  28.5563440   8.5170350  11.9469670  29.3585870
   7.1594760  12.3821360  28.8491350   9.9780080  12.3217000  17.9847440
   9.8181220  12.0319940  18.8829270   9.8126790  11.5457130  17.4492670
   2.4568460  12.1015530  19.7619060   2.2810940  11.1851070  19.5486860
   1.6024200  12.4602820  20.0016860   9.6806210   9.8304560  16.5445440
   8.9871370   9.8281850  15.8847720  10.4229070   9.4063880  16.1139610
   9.2456140  11.4567270  20.6193930   9.7013090  10.6756650  20.9332550
   9.5848660  12.1674090  21.1635110   7.9809450   2.7155720  25.2671200
   7.2490570   3.2242530  25.6161300   7.5833790   1.8985700  24.9659980
   3.4928490   2.7023140  16.0613750   2.9245390   2.2541390  15.4349660
   4.2017490   3.0615920  15.5278900   4.7194810   3.4511700  25.4189100
   5.0864940   2.9770270  26.1650440   4.5299870   4.3253270  25.7597440
   2.5094180   2.4920340  27.7373310   2.2051250   3.3712320  27.9623670
   3.4640640   2.5520130  27.7730750  11.7963950   5.6946690  24.1266550
  12.5163070   6.1901980  23.7362660  11.5945770   5.0164580  23.4820420
   7.1782750   5.7655750  30.0135550   7.1120060   4.8451420  29.7593140
   6.5487890   5.8631190  30.7280190   5.9682870   7.6327990  17.2446270
   6.3098570   8.3770220  16.7489590   5.1395580   7.9459110  17.6071100
   7.1099480   8.5876320  29.7639350   7.1244020   7.6557280  29.5458260
   6.4024580   8.6736080  30.4029120  12.2436550   2.7716140  16.0337960
  12.1600270   3.2030360  15.1834400  12.9630740   3.2314490  16.4664780
  13.3210690   5.2283660  29.1107930  12.5958880   5.8212440  28.9137320
  13.8486150   5.2207200  28.3121300  13.2723800   9.6258400  18.7620090
  12.6299960   8.9714020  19.0363810  12.8854460  10.0313490  17.9860760
   8.8510280   6.9543830  22.6091780   9.2034100   6.3571960  21.9493150
   7.9672610   6.6288060  22.7800030   4.9373560   7.7141520  20.0162190
   5.6244690   8.2610730  20.3969780   4.1505980   8.2582250  20.0511800
   4.2400770   4.7187550  19.6287550   4.6963550   5.5292800  19.8547740
   3.8888980   4.4010690  20.4606040   6.5433380  10.2293890  26.8579850
   7.1875600  10.4353270  27.5353270   6.9062820   9.4682290  26.4050700
   7.8165460   8.2326240  25.5757300   8.4587690   7.5319400  25.6889470
   8.3414810   9.0124680  25.3954190  11.6621180   8.5174860  15.2996440
  11.4358760   7.8005300  15.8921080  11.2717380   8.2687300  14.4618190
   9.5903080   9.0321140  28.7793360   9.9259320   9.6187830  29.4571280
   8.6703420   8.9013850  29.0091150  11.2437430   6.4346800  16.9610600
  10.9559130   6.8959490  17.7488480  12.0389600   5.9744570  17.2294820
   5.4191660   9.0812470  31.9481420   5.0988530   8.3621710  32.4927110
   4.7450020   9.7567540  32.0217480   3.4605830   9.9272920  16.8914570
   3.4515930  10.6602610  16.2759080   2.5404190   9.6804500  16.9841530
   6.4465430   9.9901160  15.5539760   6.5477410   9.7865150  14.6241740
   5.5467170   9.7359440  15.7587540   5.0883540  12.5087480  20.2487430
   5.3425040  12.4708870  19.3266800   4.1396020  12.3820810  20.2415680
  11.0936120   3.4279360  21.8245940  10.1526260   3.4429590  21.9993630
  11.4080190   2.6415320  22.2706240  13.0961700  10.5988210  23.5000200
  13.2209120  11.4219380  23.9724010  13.9627260  10.3878940  23.1524350
   3.6781540  11.8649730  14.9942900   4.4710150  12.1538560  14.5424690
   3.1585890  11.4341900  14.3155380   8.4102140   7.9845360  32.3078320
   7.8040300   8.0076960  31.5674070   8.1056250   7.2528400  32.8445570
   9.8402510  11.7125650  30.9187730  10.7924260  11.6283670  30.8687970
   9.6930730  12.3767360  31.5921520  12.7311710  11.0919860  16.4179640
  12.4453220  10.6785000  15.6033820  12.5331260  12.0207570  16.2980160
   4.1958940   7.0853140  14.8585250   4.0909580   6.4705490  15.5846630
   4.0283160   6.5619030  14.0748260   4.3473260   5.7709940  30.8374480
   3.5818930   6.3394940  30.7529150   4.5289220   5.4786150  29.9442710
   7.4361670   6.1473170  15.4627240   6.8871770   6.5942470  16.1069980
   8.0580930   5.6422420  15.9864910  11.4896610   7.5015270  31.3949500
  12.2306080   7.8391030  30.8916960  10.7269290   7.6707330  30.8419270
   3.1036790   5.1064090  17.3592540   3.5253210   4.9403960  18.2023930
   3.2287630   4.2964320  16.8647680   5.6164430   4.1301700  14.6069640
   6.1370090   3.4150720  14.2410790   6.2632830   4.7687570  14.9070150
  10.1642270   5.5530100  29.9304710  10.5783290   5.7075180  30.7795130
   9.2293270   5.6785320  30.0930490  10.6364440   2.8926260  31.9343860
  11.2185210   2.1378580  31.8464340  10.8126210   3.4233700  31.1575340
   4.9257500   5.5050580  27.9000640   5.3445610   6.3483310  27.7276880
   4.0066130   5.6422620  27.6707420   7.2621400   3.2366760  29.2838480
   7.3817610   2.6407900  30.0233320   8.1215400   3.2736450  28.8639780
   9.6009300   3.7903950  27.8600990   9.0744520   4.3146570  27.2566130
   9.9440640   4.4231340  28.4910720   2.7764920  11.8103590  29.0158370
   2.2386010  12.5349650  28.6967070   3.0298880  11.3333930  28.2255710
   5.6327130  13.0454800  29.2745020   5.5585830  13.9489940  29.5817390
   4.7305970  12.7266700  29.2467090   6.1812460  12.2113310  16.8971380
   7.0763250  12.5498280  16.9190140   6.2130090  11.4892720  16.2695660
  13.1606810  10.7416980  29.6037580  12.5608800  10.8009540  28.8601500
  13.2900710   9.8021960  29.7334430  14.4008260   8.4834800  14.9407290
  13.5701220   8.5511450  15.4114520  14.5780090   9.3738920  14.6374150
  13.8564720   5.2282280  17.4441490  14.6183630   5.7978930  17.5501180
  13.8719090   4.6609480  18.2149800  14.8624690   6.0832380  22.2883420
  15.2333520   5.2999700  21.8819390  15.5026620   6.7721480  22.1100720
  11.8458450   7.4668960  27.7013740  11.0318290   7.8966120  27.9639530
  12.2532650   8.0787370  27.0882790  13.9083890   5.5216650  14.6014010
  14.1832730   6.4295530  14.4733230  13.7194630   5.4579180  15.5376000
  13.8049230   3.4585640  19.5943440  13.4292830   2.6913570  19.1624730
  13.0752350   3.8408340  20.0818370  13.1948850   2.6057160  29.2282960
  12.9634940   2.3769910  28.3280910  13.4553400   3.5256710  29.1827850
  13.2589910   1.7683000  26.4170230  12.3092620   1.7346540  26.5315220
  13.4402920   2.6783110  26.1820000  11.9034500  12.2187560  21.2282010
  12.4993570  11.8972130  20.5516430  12.1612650  11.7459380  22.0195280
   3.5103100  10.2065060  26.9782360   3.2694460  10.4739620  26.0912880
   4.4505740  10.3770790  27.0333220  14.7707260  12.2259440  27.7793000
  14.2765540  12.6228310  27.0620130  14.1620550  11.6008650  28.1730280
  12.4546710  12.8682860  25.0579740  11.9949680  13.6198670  24.6837760
  11.8259170  12.1489330  24.9994540   2.8842430  11.1771100  24.2327870
   3.4007450  10.5658460  23.7076130   3.5339810  11.6799880  24.7238880
   5.6237930  12.0679590  25.0596850   5.9115740  11.8133890  24.1829860
   6.1361150  11.5156950  25.6502420   5.6910290  12.9895690  32.4265050
   6.6177600  12.7539960  32.4701010   5.6760720  13.8167690  31.9451080
  13.9255350  12.5321260  19.4239300  14.1007540  11.8459000  18.7800220
  13.2276920  13.0568310  19.0315970   1.7683000  12.9216100  16.9774610
   2.5001820  12.6375380  16.4298500   2.0276670  12.6829380  17.8673990
  12.2587850  12.2165550  32.2506090  13.0513170  11.7214780  32.0432050
  12.5521000  12.8955690  32.8581700   8.3847510   3.0886490   3.1322140
   8.3041560   2.1741100   2.8613850   7.9711930   3.5853560   2.4261850
   6.5165550   4.8665510   5.0131410   5.7407650   4.3865950   5.3029980
   7.1678480   4.1871160   4.8387570  10.5372980   9.2725700   3.7930540
  10.0754510   8.5012940   4.1217710  11.3498530   9.2991770   4.2982990
   6.7636290  11.5583710   3.4134530   6.1447730  12.0141210   2.8428970
   7.6188070  11.7135170   3.0124230   5.9574540   7.5422700   5.0201570
   5.8882820   6.6012640   4.8590700   6.7194400   7.6324110   5.5924140
   2.4931400   5.9698820   7.4850040   2.1600780   6.5967740   8.1271110
   2.6698080   6.4960700   6.7051710  12.6228090   9.4019030   7.2153860
  11.9391610  10.0718140   7.2070530  13.1622380   9.5999680   6.4498720
  10.1586830  11.2463160   5.9299040  10.1713990  10.8425450   5.0621300
   9.6062050  12.0210450   5.8260470   9.5572270   6.1493000   7.2581650
   9.9741060   5.9353110   6.4235110  10.2812090   6.4065790   7.8290270
  13.5034370   4.5480220   7.3497890  12.6753000   4.6173310   6.8748020
  14.0984850   5.1334530   6.8813720   2.6009170   4.1209440   3.1571430
   2.1966170   3.4086690   2.6617330   2.6872290   3.7762680   4.0459470
   3.0690870   7.8077000   5.3210640   2.7719160   7.2022470   4.6418420
   4.0190690   7.8454310   5.2100000  11.1576480  11.3808870   8.9833740
  10.6807040  12.1881060   8.7906350  10.4738270  10.7287200   9.1359950
   7.3109900   9.3347880   1.8540940   7.7505810  10.0772210   1.4396330
   7.2496790   9.5774450   2.7779900   2.7860870  10.3593710  12.7560960
   2.7576300  10.7636660  11.8889390   2.6225840   9.4304070  12.5932560
  14.7375690  11.1420810  14.0525130  15.2135410  11.6203700  14.7314210
  15.3582850  11.0738300  13.3270630  14.1408940   8.3333660  11.2125140
  14.2672000   8.0945540  10.2942320  14.1830320   7.5018200  11.6847220
   8.0025680  12.0361660   9.7819950   8.5170350  11.9469670  10.5842380
   7.1594760  12.3821360  10.0747860   9.2456140  11.4567270   1.8450440
   9.7013090  10.6756650   2.1589060   9.5848660  12.1674090   2.3891620
   7.9809450   2.7155720   6.4927710   7.2490570   3.2242530   6.8417810
   7.5833790   1.8985700   6.1916490   4.7194810   3.4511700   6.6445610
   5.0864940   2.9770270   7.3906950   4.5299870   4.3253270   6.9853950
   2.5094180   2.4920340   8.9629820   2.2051250   3.3712320   9.1880180
   3.4640640   2.5520130   8.9987260  11.7963950   5.6946690   5.3523060
  12.5163070   6.1901980   4.9619170  11.5945770   5.0164580   4.7076930
   7.1782750   5.7655750  11.2392060   7.1120060   4.8451420  10.9849650
   6.5487890   5.8631190  11.9536700   7.1099480   8.5876320  10.9895860
   7.1244020   7.6557280  10.7714770   6.4024580   8.6736080  11.6285630
  13.3210690   5.2283660  10.3364440  12.5958880   5.8212440  10.1393830
  13.8486150   5.2207200   9.5377810   8.8510280   6.9543830   3.8348290
   9.2034100   6.3571960   3.1749660   7.9672610   6.6288060   4.0056540
   6.5433380  10.2293890   8.0836360   7.1875600  10.4353270   8.7609780
   6.9062820   9.4682290   7.6307210   7.8165460   8.2326240   6.8013810
   8.4587690   7.5319400   6.9145980   8.3414810   9.0124680   6.6210700
   9.5903080   9.0321140  10.0049870   9.9259320   9.6187830  10.6827790
   8.6703420   8.9013850  10.2347660   5.4191660   9.0812470  13.1737930
   5.0988530   8.3621710  13.7183620   4.7450020   9.7567540  13.2473990
  11.0936120   3.4279360   3.0502450  10.1526260   3.4429590   3.2250140
  11.4080190   2.6415320   3.4962750  13.0961700  10.5988210   4.7256710
  13.2209120  11.4219380   5.1980520  13.9627260  10.3878940   4.3780860
   8.4102140   7.9845360  13.5334830   7.8040300   8.0076960  12.7930580
   8.1056250   7.2528400  14.0702080   9.8402510  11.7125650  12.1444240
  10.7924260  11.6283670  12.0944480   9.6930730  12.3767360  12.8178030
   4.3473260   5.7709940  12.0630990   3.5818930   6.3394940  11.9785660
   4.5289220   5.4786150  11.1699220  11.4896610   7.5015270  12.6206010
  12.2306080   7.8391030  12.1173470  10.7269290   7.6707330  12.0675780
  10.1642270   5.5530100  11.1561220  10.5783290   5.7075180  12.0051640
   9.2293270   5.6785320  11.3187000  10.6364440   2.8926260  13.1600370
  11.2185210   2.1378580  13.0720850  10.8126210   3.4233700  12.3831850
   4.9257500   5.5050580   9.1257150   5.3445610   6.3483310   8.9533390
   4.0066130   5.6422620   8.8963930   7.2621400   3.2366760  10.5094990
   7.3817610   2.6407900  11.2489830   8.1215400   3.2736450  10.0896290
   9.6009300   3.7903950   9.0857500   9.0744520   4.3146570   8.4822640
   9.9440640   4.4231340   9.7167230   2.7764920  11.8103590  10.2414880
   2.2386010  12.5349650   9.9223580   3.0298880  11.3333930   9.4512220
   5.6327130  13.0454800  10.5001530   5.5585830  13.9489940  10.8073900
   4.7305970  12.7266700  10.4723600  13.1606810  10.7416980  10.8294090
  12.5608800  10.8009540  10.0858010  13.2900710   9.8021960  10.9590940
  14.8624690   6.0832380   3.5139930  15.2333520   5.2999700   3.1075900
  15.5026620   6.7721480   3.3357230  11.8458450   7.4668960   8.9270250
  11.0318290   7.8966120   9.1896040  12.2532650   8.0787370   8.3139300
  13.1948850   2.6057160  10.4539470  12.9634940   2.3769910   9.5537420
  13.4553400   3.5256710  10.4084360  13.2589910   1.7683000   7.6426740
  12.3092620   1.7346540   7.7571730  13.4402920   2.6783110   7.4076510
  11.9034500  12.2187560   2.4538520  12.4993570  11.8972130   1.7772940
  12.1612650  11.7459380   3.2451790   3.5103100  10.2065060   8.2038870
   3.2694460  10.4739620   7.3169390   4.4505740  10.3770790   8.2589730
  14.7707260  12.2259440   9.0049510  14.2765540  12.6228310   8.2876640
  14.1620550  11.6008650   9.3986790  12.4546710  12.8682860   6.2836250
  11.9949680  13.6198670   5.9094270  11.8259170  12.1489330   6.2251050
   2.8842430  11.1771100   5.4584380   3.4007450  10.5658460   4.9332640
   3.5339810  11.6799880   5.9495390   5.6237930  12.0679590   6.2853360
   5.9115740  11.8133890   5.4086370   6.1361150  11.5156950   6.8758930
   5.6910290  12.9895690  13.6521560   6.6177600  12.7539960  13.6957520
   5.6760720  13.8167690  13.1707590  12.2587850  12.2165550  13.4762600
  13.0513170  11.7214780  13.2688560  12.5521000  12.8955690  14.0838210
  86.1113100  82.6312710  84.5083700  90.0000000  90.0000000  90.0000000
